Built with Packmol
 4297
    1Gr      Gr    1   0.071   0.062   1.000
    2Gr      Gr    2   0.355   0.062   1.000
    3Gr      Gr    3   0.142   0.184   1.000
    4Gr      Gr    4   0.284   0.184   1.000
    5Gr      Gr    5   0.071   0.308   1.000
    6Gr      Gr    6   0.355   0.308   1.000
    7Gr      Gr    7   0.142   0.431   1.000
    8Gr      Gr    8   0.284   0.431   1.000
    9Gr      Gr    9   0.071   0.554   1.000
   10Gr      Gr   10   0.355   0.554   1.000
   11Gr      Gr   11   0.142   0.677   1.000
   12Gr      Gr   12   0.284   0.677   1.000
   13Gr      Gr   13   0.071   0.800   1.000
   14Gr      Gr   14   0.355   0.800   1.000
   15Gr      Gr   15   0.142   0.923   1.000
   16Gr      Gr   16   0.284   0.923   1.000
   17Gr      Gr   17   0.071   1.046   1.000
   18Gr      Gr   18   0.355   1.046   1.000
   19Gr      Gr   19   0.142   1.169   1.000
   20Gr      Gr   20   0.284   1.169   1.000
   21Gr      Gr   21   0.071   1.292   1.000
   22Gr      Gr   22   0.355   1.292   1.000
   23Gr      Gr   23   0.142   1.415   1.000
   24Gr      Gr   24   0.284   1.415   1.000
   25Gr      Gr   25   0.071   1.538   1.000
   26Gr      Gr   26   0.355   1.538   1.000
   27Gr      Gr   27   0.142   1.661   1.000
   28Gr      Gr   28   0.284   1.661   1.000
   29Gr      Gr   29   0.071   1.784   1.000
   30Gr      Gr   30   0.355   1.784   1.000
   31Gr      Gr   31   0.142   1.907   1.000
   32Gr      Gr   32   0.284   1.907   1.000
   33Gr      Gr   33   0.071   2.030   1.000
   34Gr      Gr   34   0.355   2.030   1.000
   35Gr      Gr   35   0.142   2.153   1.000
   36Gr      Gr   36   0.284   2.153   1.000
   37Gr      Gr   37   0.071   2.276   1.000
   38Gr      Gr   38   0.355   2.276   1.000
   39Gr      Gr   39   0.142   2.399   1.000
   40Gr      Gr   40   0.284   2.399   1.000
   41Gr      Gr   41   0.071   2.523   1.000
   42Gr      Gr   42   0.355   2.523   1.000
   43Gr      Gr   43   0.142   2.645   1.000
   44Gr      Gr   44   0.284   2.645   1.000
   45Gr      Gr   45   0.071   2.769   1.000
   46Gr      Gr   46   0.355   2.769   1.000
   47Gr      Gr   47   0.142   2.892   1.000
   48Gr      Gr   48   0.284   2.892   1.000
   49Gr      Gr   49   0.071   3.015   1.000
   50Gr      Gr   50   0.355   3.015   1.000
   51Gr      Gr   51   0.142   3.138   1.000
   52Gr      Gr   52   0.284   3.138   1.000
   53Gr      Gr   53   0.071   3.261   1.000
   54Gr      Gr   54   0.355   3.261   1.000
   55Gr      Gr   55   0.142   3.384   1.000
   56Gr      Gr   56   0.284   3.384   1.000
   57Gr      Gr   57   0.071   3.507   1.000
   58Gr      Gr   58   0.355   3.507   1.000
   59Gr      Gr   59   0.142   3.630   1.000
   60Gr      Gr   60   0.284   3.630   1.000
   61Gr      Gr   61   0.071   3.753   1.000
   62Gr      Gr   62   0.355   3.753   1.000
   63Gr      Gr   63   0.142   3.876   1.000
   64Gr      Gr   64   0.284   3.876   1.000
   65Gr      Gr   65   0.497   0.062   1.000
   66Gr      Gr   66   0.781   0.062   1.000
   67Gr      Gr   67   0.568   0.184   1.000
   68Gr      Gr   68   0.710   0.184   1.000
   69Gr      Gr   69   0.497   0.308   1.000
   70Gr      Gr   70   0.781   0.308   1.000
   71Gr      Gr   71   0.568   0.431   1.000
   72Gr      Gr   72   0.710   0.431   1.000
   73Gr      Gr   73   0.497   0.554   1.000
   74Gr      Gr   74   0.781   0.554   1.000
   75Gr      Gr   75   0.568   0.677   1.000
   76Gr      Gr   76   0.710   0.677   1.000
   77Gr      Gr   77   0.497   0.800   1.000
   78Gr      Gr   78   0.781   0.800   1.000
   79Gr      Gr   79   0.568   0.923   1.000
   80Gr      Gr   80   0.710   0.923   1.000
   81Gr      Gr   81   0.497   1.046   1.000
   82Gr      Gr   82   0.781   1.046   1.000
   83Gr      Gr   83   0.568   1.169   1.000
   84Gr      Gr   84   0.710   1.169   1.000
   85Gr      Gr   85   0.497   1.292   1.000
   86Gr      Gr   86   0.781   1.292   1.000
   87Gr      Gr   87   0.568   1.415   1.000
   88Gr      Gr   88   0.710   1.415   1.000
   89Gr      Gr   89   0.497   1.538   1.000
   90Gr      Gr   90   0.781   1.538   1.000
   91Gr      Gr   91   0.568   1.661   1.000
   92Gr      Gr   92   0.710   1.661   1.000
   93Gr      Gr   93   0.497   1.784   1.000
   94Gr      Gr   94   0.781   1.784   1.000
   95Gr      Gr   95   0.568   1.907   1.000
   96Gr      Gr   96   0.710   1.907   1.000
   97Gr      Gr   97   0.497   2.030   1.000
   98Gr      Gr   98   0.781   2.030   1.000
   99Gr      Gr   99   0.568   2.153   1.000
  100Gr      Gr  100   0.710   2.153   1.000
  101Gr      Gr  101   0.497   2.276   1.000
  102Gr      Gr  102   0.781   2.276   1.000
  103Gr      Gr  103   0.568   2.399   1.000
  104Gr      Gr  104   0.710   2.399   1.000
  105Gr      Gr  105   0.497   2.523   1.000
  106Gr      Gr  106   0.781   2.523   1.000
  107Gr      Gr  107   0.568   2.645   1.000
  108Gr      Gr  108   0.710   2.645   1.000
  109Gr      Gr  109   0.497   2.769   1.000
  110Gr      Gr  110   0.781   2.769   1.000
  111Gr      Gr  111   0.568   2.892   1.000
  112Gr      Gr  112   0.710   2.892   1.000
  113Gr      Gr  113   0.497   3.015   1.000
  114Gr      Gr  114   0.781   3.015   1.000
  115Gr      Gr  115   0.568   3.138   1.000
  116Gr      Gr  116   0.710   3.138   1.000
  117Gr      Gr  117   0.497   3.261   1.000
  118Gr      Gr  118   0.781   3.261   1.000
  119Gr      Gr  119   0.568   3.384   1.000
  120Gr      Gr  120   0.710   3.384   1.000
  121Gr      Gr  121   0.497   3.507   1.000
  122Gr      Gr  122   0.781   3.507   1.000
  123Gr      Gr  123   0.568   3.630   1.000
  124Gr      Gr  124   0.710   3.630   1.000
  125Gr      Gr  125   0.497   3.753   1.000
  126Gr      Gr  126   0.781   3.753   1.000
  127Gr      Gr  127   0.568   3.876   1.000
  128Gr      Gr  128   0.710   3.876   1.000
  129Gr      Gr  129   0.924   0.062   1.000
  130Gr      Gr  130   1.208   0.062   1.000
  131Gr      Gr  131   0.995   0.184   1.000
  132Gr      Gr  132   1.137   0.184   1.000
  133Gr      Gr  133   0.924   0.308   1.000
  134Gr      Gr  134   1.208   0.308   1.000
  135Gr      Gr  135   0.995   0.431   1.000
  136Gr      Gr  136   1.137   0.431   1.000
  137Gr      Gr  137   0.924   0.554   1.000
  138Gr      Gr  138   1.208   0.554   1.000
  139Gr      Gr  139   0.995   0.677   1.000
  140Gr      Gr  140   1.137   0.677   1.000
  141Gr      Gr  141   0.924   0.800   1.000
  142Gr      Gr  142   1.208   0.800   1.000
  143Gr      Gr  143   0.995   0.923   1.000
  144Gr      Gr  144   1.137   0.923   1.000
  145Gr      Gr  145   0.924   1.046   1.000
  146Gr      Gr  146   1.208   1.046   1.000
  147Gr      Gr  147   0.995   1.169   1.000
  148Gr      Gr  148   1.137   1.169   1.000
  149Gr      Gr  149   0.924   1.292   1.000
  150Gr      Gr  150   1.208   1.292   1.000
  151Gr      Gr  151   0.995   1.415   1.000
  152Gr      Gr  152   1.137   1.415   1.000
  153Gr      Gr  153   0.924   1.538   1.000
  154Gr      Gr  154   1.208   1.538   1.000
  155Gr      Gr  155   0.995   1.661   1.000
  156Gr      Gr  156   1.137   1.661   1.000
  157Gr      Gr  157   0.924   1.784   1.000
  158Gr      Gr  158   1.208   1.784   1.000
  159Gr      Gr  159   0.995   1.907   1.000
  160Gr      Gr  160   1.137   1.907   1.000
  161Gr      Gr  161   0.924   2.030   1.000
  162Gr      Gr  162   1.208   2.030   1.000
  163Gr      Gr  163   0.995   2.153   1.000
  164Gr      Gr  164   1.137   2.153   1.000
  165Gr      Gr  165   0.924   2.276   1.000
  166Gr      Gr  166   1.208   2.276   1.000
  167Gr      Gr  167   0.995   2.399   1.000
  168Gr      Gr  168   1.137   2.399   1.000
  169Gr      Gr  169   0.924   2.523   1.000
  170Gr      Gr  170   1.208   2.523   1.000
  171Gr      Gr  171   0.995   2.645   1.000
  172Gr      Gr  172   1.137   2.645   1.000
  173Gr      Gr  173   0.924   2.769   1.000
  174Gr      Gr  174   1.208   2.769   1.000
  175Gr      Gr  175   0.995   2.892   1.000
  176Gr      Gr  176   1.137   2.892   1.000
  177Gr      Gr  177   0.924   3.015   1.000
  178Gr      Gr  178   1.208   3.015   1.000
  179Gr      Gr  179   0.995   3.138   1.000
  180Gr      Gr  180   1.137   3.138   1.000
  181Gr      Gr  181   0.924   3.261   1.000
  182Gr      Gr  182   1.208   3.261   1.000
  183Gr      Gr  183   0.995   3.384   1.000
  184Gr      Gr  184   1.137   3.384   1.000
  185Gr      Gr  185   0.924   3.507   1.000
  186Gr      Gr  186   1.208   3.507   1.000
  187Gr      Gr  187   0.995   3.630   1.000
  188Gr      Gr  188   1.137   3.630   1.000
  189Gr      Gr  189   0.924   3.753   1.000
  190Gr      Gr  190   1.208   3.753   1.000
  191Gr      Gr  191   0.995   3.876   1.000
  192Gr      Gr  192   1.137   3.876   1.000
  193Gr      Gr  193   1.350   0.062   1.000
  194Gr      Gr  194   1.634   0.062   1.000
  195Gr      Gr  195   1.421   0.184   1.000
  196Gr      Gr  196   1.563   0.184   1.000
  197Gr      Gr  197   1.350   0.308   1.000
  198Gr      Gr  198   1.634   0.308   1.000
  199Gr      Gr  199   1.421   0.431   1.000
  200Gr      Gr  200   1.563   0.431   1.000
  201Gr      Gr  201   1.350   0.554   1.000
  202Gr      Gr  202   1.634   0.554   1.000
  203Gr      Gr  203   1.421   0.677   1.000
  204Gr      Gr  204   1.563   0.677   1.000
  205Gr      Gr  205   1.350   0.800   1.000
  206Gr      Gr  206   1.634   0.800   1.000
  207Gr      Gr  207   1.421   0.923   1.000
  208Gr      Gr  208   1.563   0.923   1.000
  209Gr      Gr  209   1.350   1.046   1.000
  210Gr      Gr  210   1.634   1.046   1.000
  211Gr      Gr  211   1.421   1.169   1.000
  212Gr      Gr  212   1.563   1.169   1.000
  213Gr      Gr  213   1.350   1.292   1.000
  214Gr      Gr  214   1.634   1.292   1.000
  215Gr      Gr  215   1.421   1.415   1.000
  216Gr      Gr  216   1.563   1.415   1.000
  217Gr      Gr  217   1.350   1.538   1.000
  218Gr      Gr  218   1.634   1.538   1.000
  219Gr      Gr  219   1.421   1.661   1.000
  220Gr      Gr  220   1.563   1.661   1.000
  221Gr      Gr  221   1.350   1.784   1.000
  222Gr      Gr  222   1.634   1.784   1.000
  223Gr      Gr  223   1.421   1.907   1.000
  224Gr      Gr  224   1.563   1.907   1.000
  225Gr      Gr  225   1.350   2.030   1.000
  226Gr      Gr  226   1.634   2.030   1.000
  227Gr      Gr  227   1.421   2.153   1.000
  228Gr      Gr  228   1.563   2.153   1.000
  229Gr      Gr  229   1.350   2.276   1.000
  230Gr      Gr  230   1.634   2.276   1.000
  231Gr      Gr  231   1.421   2.399   1.000
  232Gr      Gr  232   1.563   2.399   1.000
  233Gr      Gr  233   1.350   2.523   1.000
  234Gr      Gr  234   1.634   2.523   1.000
  235Gr      Gr  235   1.421   2.645   1.000
  236Gr      Gr  236   1.563   2.645   1.000
  237Gr      Gr  237   1.350   2.769   1.000
  238Gr      Gr  238   1.634   2.769   1.000
  239Gr      Gr  239   1.421   2.892   1.000
  240Gr      Gr  240   1.563   2.892   1.000
  241Gr      Gr  241   1.350   3.015   1.000
  242Gr      Gr  242   1.634   3.015   1.000
  243Gr      Gr  243   1.421   3.138   1.000
  244Gr      Gr  244   1.563   3.138   1.000
  245Gr      Gr  245   1.350   3.261   1.000
  246Gr      Gr  246   1.634   3.261   1.000
  247Gr      Gr  247   1.421   3.384   1.000
  248Gr      Gr  248   1.563   3.384   1.000
  249Gr      Gr  249   1.350   3.507   1.000
  250Gr      Gr  250   1.634   3.507   1.000
  251Gr      Gr  251   1.421   3.630   1.000
  252Gr      Gr  252   1.563   3.630   1.000
  253Gr      Gr  253   1.350   3.753   1.000
  254Gr      Gr  254   1.634   3.753   1.000
  255Gr      Gr  255   1.421   3.876   1.000
  256Gr      Gr  256   1.563   3.876   1.000
  257Gr      Gr  257   1.776   0.062   1.000
  258Gr      Gr  258   2.060   0.062   1.000
  259Gr      Gr  259   1.847   0.184   1.000
  260Gr      Gr  260   1.989   0.184   1.000
  261Gr      Gr  261   1.776   0.308   1.000
  262Gr      Gr  262   2.060   0.308   1.000
  263Gr      Gr  263   1.847   0.431   1.000
  264Gr      Gr  264   1.989   0.431   1.000
  265Gr      Gr  265   1.776   0.554   1.000
  266Gr      Gr  266   2.060   0.554   1.000
  267Gr      Gr  267   1.847   0.677   1.000
  268Gr      Gr  268   1.989   0.677   1.000
  269Gr      Gr  269   1.776   0.800   1.000
  270Gr      Gr  270   2.060   0.800   1.000
  271Gr      Gr  271   1.847   0.923   1.000
  272Gr      Gr  272   1.989   0.923   1.000
  273Gr      Gr  273   1.776   1.046   1.000
  274Gr      Gr  274   2.060   1.046   1.000
  275Gr      Gr  275   1.847   1.169   1.000
  276Gr      Gr  276   1.989   1.169   1.000
  277Gr      Gr  277   1.776   1.292   1.000
  278Gr      Gr  278   2.060   1.292   1.000
  279Gr      Gr  279   1.847   1.415   1.000
  280Gr      Gr  280   1.989   1.415   1.000
  281Gr      Gr  281   1.776   1.538   1.000
  282Gr      Gr  282   2.060   1.538   1.000
  283Gr      Gr  283   1.847   1.661   1.000
  284Gr      Gr  284   1.989   1.661   1.000
  285Gr      Gr  285   1.776   1.784   1.000
  286Gr      Gr  286   2.060   1.784   1.000
  287Gr      Gr  287   1.847   1.907   1.000
  288Gr      Gr  288   1.989   1.907   1.000
  289Gr      Gr  289   1.776   2.030   1.000
  290Gr      Gr  290   2.060   2.030   1.000
  291Gr      Gr  291   1.847   2.153   1.000
  292Gr      Gr  292   1.989   2.153   1.000
  293Gr      Gr  293   1.776   2.276   1.000
  294Gr      Gr  294   2.060   2.276   1.000
  295Gr      Gr  295   1.847   2.399   1.000
  296Gr      Gr  296   1.989   2.399   1.000
  297Gr      Gr  297   1.776   2.523   1.000
  298Gr      Gr  298   2.060   2.523   1.000
  299Gr      Gr  299   1.847   2.645   1.000
  300Gr      Gr  300   1.989   2.645   1.000
  301Gr      Gr  301   1.776   2.769   1.000
  302Gr      Gr  302   2.060   2.769   1.000
  303Gr      Gr  303   1.847   2.892   1.000
  304Gr      Gr  304   1.989   2.892   1.000
  305Gr      Gr  305   1.776   3.015   1.000
  306Gr      Gr  306   2.060   3.015   1.000
  307Gr      Gr  307   1.847   3.138   1.000
  308Gr      Gr  308   1.989   3.138   1.000
  309Gr      Gr  309   1.776   3.261   1.000
  310Gr      Gr  310   2.060   3.261   1.000
  311Gr      Gr  311   1.847   3.384   1.000
  312Gr      Gr  312   1.989   3.384   1.000
  313Gr      Gr  313   1.776   3.507   1.000
  314Gr      Gr  314   2.060   3.507   1.000
  315Gr      Gr  315   1.847   3.630   1.000
  316Gr      Gr  316   1.989   3.630   1.000
  317Gr      Gr  317   1.776   3.753   1.000
  318Gr      Gr  318   2.060   3.753   1.000
  319Gr      Gr  319   1.847   3.876   1.000
  320Gr      Gr  320   1.989   3.876   1.000
  321Gr      Gr  321   2.202   0.062   1.000
  322Gr      Gr  322   2.487   0.062   1.000
  323Gr      Gr  323   2.273   0.184   1.000
  324Gr      Gr  324   2.415   0.184   1.000
  325Gr      Gr  325   2.202   0.308   1.000
  326Gr      Gr  326   2.487   0.308   1.000
  327Gr      Gr  327   2.273   0.431   1.000
  328Gr      Gr  328   2.415   0.431   1.000
  329Gr      Gr  329   2.202   0.554   1.000
  330Gr      Gr  330   2.487   0.554   1.000
  331Gr      Gr  331   2.273   0.677   1.000
  332Gr      Gr  332   2.415   0.677   1.000
  333Gr      Gr  333   2.202   0.800   1.000
  334Gr      Gr  334   2.487   0.800   1.000
  335Gr      Gr  335   2.273   0.923   1.000
  336Gr      Gr  336   2.415   0.923   1.000
  337Gr      Gr  337   2.202   1.046   1.000
  338Gr      Gr  338   2.487   1.046   1.000
  339Gr      Gr  339   2.273   1.169   1.000
  340Gr      Gr  340   2.415   1.169   1.000
  341Gr      Gr  341   2.202   1.292   1.000
  342Gr      Gr  342   2.487   1.292   1.000
  343Gr      Gr  343   2.273   1.415   1.000
  344Gr      Gr  344   2.415   1.415   1.000
  345Gr      Gr  345   2.202   1.538   1.000
  346Gr      Gr  346   2.487   1.538   1.000
  347Gr      Gr  347   2.273   1.661   1.000
  348Gr      Gr  348   2.415   1.661   1.000
  349Gr      Gr  349   2.202   1.784   1.000
  350Gr      Gr  350   2.487   1.784   1.000
  351Gr      Gr  351   2.273   1.907   1.000
  352Gr      Gr  352   2.415   1.907   1.000
  353Gr      Gr  353   2.202   2.030   1.000
  354Gr      Gr  354   2.487   2.030   1.000
  355Gr      Gr  355   2.273   2.153   1.000
  356Gr      Gr  356   2.415   2.153   1.000
  357Gr      Gr  357   2.202   2.276   1.000
  358Gr      Gr  358   2.487   2.276   1.000
  359Gr      Gr  359   2.273   2.399   1.000
  360Gr      Gr  360   2.415   2.399   1.000
  361Gr      Gr  361   2.202   2.523   1.000
  362Gr      Gr  362   2.487   2.523   1.000
  363Gr      Gr  363   2.273   2.645   1.000
  364Gr      Gr  364   2.415   2.645   1.000
  365Gr      Gr  365   2.202   2.769   1.000
  366Gr      Gr  366   2.487   2.769   1.000
  367Gr      Gr  367   2.273   2.892   1.000
  368Gr      Gr  368   2.415   2.892   1.000
  369Gr      Gr  369   2.202   3.015   1.000
  370Gr      Gr  370   2.487   3.015   1.000
  371Gr      Gr  371   2.273   3.138   1.000
  372Gr      Gr  372   2.415   3.138   1.000
  373Gr      Gr  373   2.202   3.261   1.000
  374Gr      Gr  374   2.487   3.261   1.000
  375Gr      Gr  375   2.273   3.384   1.000
  376Gr      Gr  376   2.415   3.384   1.000
  377Gr      Gr  377   2.202   3.507   1.000
  378Gr      Gr  378   2.487   3.507   1.000
  379Gr      Gr  379   2.273   3.630   1.000
  380Gr      Gr  380   2.415   3.630   1.000
  381Gr      Gr  381   2.202   3.753   1.000
  382Gr      Gr  382   2.487   3.753   1.000
  383Gr      Gr  383   2.273   3.876   1.000
  384Gr      Gr  384   2.415   3.876   1.000
  385Gr      Gr  385   2.628   0.062   1.000
  386Gr      Gr  386   2.913   0.062   1.000
  387Gr      Gr  387   2.700   0.184   1.000
  388Gr      Gr  388   2.842   0.184   1.000
  389Gr      Gr  389   2.628   0.308   1.000
  390Gr      Gr  390   2.913   0.308   1.000
  391Gr      Gr  391   2.700   0.431   1.000
  392Gr      Gr  392   2.842   0.431   1.000
  393Gr      Gr  393   2.628   0.554   1.000
  394Gr      Gr  394   2.913   0.554   1.000
  395Gr      Gr  395   2.700   0.677   1.000
  396Gr      Gr  396   2.842   0.677   1.000
  397Gr      Gr  397   2.628   0.800   1.000
  398Gr      Gr  398   2.913   0.800   1.000
  399Gr      Gr  399   2.700   0.923   1.000
  400Gr      Gr  400   2.842   0.923   1.000
  401Gr      Gr  401   2.628   1.046   1.000
  402Gr      Gr  402   2.913   1.046   1.000
  403Gr      Gr  403   2.700   1.169   1.000
  404Gr      Gr  404   2.842   1.169   1.000
  405Gr      Gr  405   2.628   1.292   1.000
  406Gr      Gr  406   2.913   1.292   1.000
  407Gr      Gr  407   2.700   1.415   1.000
  408Gr      Gr  408   2.842   1.415   1.000
  409Gr      Gr  409   2.628   1.538   1.000
  410Gr      Gr  410   2.913   1.538   1.000
  411Gr      Gr  411   2.700   1.661   1.000
  412Gr      Gr  412   2.842   1.661   1.000
  413Gr      Gr  413   2.628   1.784   1.000
  414Gr      Gr  414   2.913   1.784   1.000
  415Gr      Gr  415   2.700   1.907   1.000
  416Gr      Gr  416   2.842   1.907   1.000
  417Gr      Gr  417   2.628   2.030   1.000
  418Gr      Gr  418   2.913   2.030   1.000
  419Gr      Gr  419   2.700   2.153   1.000
  420Gr      Gr  420   2.842   2.153   1.000
  421Gr      Gr  421   2.628   2.276   1.000
  422Gr      Gr  422   2.913   2.276   1.000
  423Gr      Gr  423   2.700   2.399   1.000
  424Gr      Gr  424   2.842   2.399   1.000
  425Gr      Gr  425   2.628   2.523   1.000
  426Gr      Gr  426   2.913   2.523   1.000
  427Gr      Gr  427   2.700   2.645   1.000
  428Gr      Gr  428   2.842   2.645   1.000
  429Gr      Gr  429   2.628   2.769   1.000
  430Gr      Gr  430   2.913   2.769   1.000
  431Gr      Gr  431   2.700   2.892   1.000
  432Gr      Gr  432   2.842   2.892   1.000
  433Gr      Gr  433   2.628   3.015   1.000
  434Gr      Gr  434   2.913   3.015   1.000
  435Gr      Gr  435   2.700   3.138   1.000
  436Gr      Gr  436   2.842   3.138   1.000
  437Gr      Gr  437   2.628   3.261   1.000
  438Gr      Gr  438   2.913   3.261   1.000
  439Gr      Gr  439   2.700   3.384   1.000
  440Gr      Gr  440   2.842   3.384   1.000
  441Gr      Gr  441   2.628   3.507   1.000
  442Gr      Gr  442   2.913   3.507   1.000
  443Gr      Gr  443   2.700   3.630   1.000
  444Gr      Gr  444   2.842   3.630   1.000
  445Gr      Gr  445   2.628   3.753   1.000
  446Gr      Gr  446   2.913   3.753   1.000
  447Gr      Gr  447   2.700   3.876   1.000
  448Gr      Gr  448   2.842   3.876   1.000
  449Gr      Gr  449   3.055   0.062   1.000
  450Gr      Gr  450   3.339   0.062   1.000
  451Gr      Gr  451   3.126   0.184   1.000
  452Gr      Gr  452   3.268   0.184   1.000
  453Gr      Gr  453   3.055   0.308   1.000
  454Gr      Gr  454   3.339   0.308   1.000
  455Gr      Gr  455   3.126   0.431   1.000
  456Gr      Gr  456   3.268   0.431   1.000
  457Gr      Gr  457   3.055   0.554   1.000
  458Gr      Gr  458   3.339   0.554   1.000
  459Gr      Gr  459   3.126   0.677   1.000
  460Gr      Gr  460   3.268   0.677   1.000
  461Gr      Gr  461   3.055   0.800   1.000
  462Gr      Gr  462   3.339   0.800   1.000
  463Gr      Gr  463   3.126   0.923   1.000
  464Gr      Gr  464   3.268   0.923   1.000
  465Gr      Gr  465   3.055   1.046   1.000
  466Gr      Gr  466   3.339   1.046   1.000
  467Gr      Gr  467   3.126   1.169   1.000
  468Gr      Gr  468   3.268   1.169   1.000
  469Gr      Gr  469   3.055   1.292   1.000
  470Gr      Gr  470   3.339   1.292   1.000
  471Gr      Gr  471   3.126   1.415   1.000
  472Gr      Gr  472   3.268   1.415   1.000
  473Gr      Gr  473   3.055   1.538   1.000
  474Gr      Gr  474   3.339   1.538   1.000
  475Gr      Gr  475   3.126   1.661   1.000
  476Gr      Gr  476   3.268   1.661   1.000
  477Gr      Gr  477   3.055   1.784   1.000
  478Gr      Gr  478   3.339   1.784   1.000
  479Gr      Gr  479   3.126   1.907   1.000
  480Gr      Gr  480   3.268   1.907   1.000
  481Gr      Gr  481   3.055   2.030   1.000
  482Gr      Gr  482   3.339   2.030   1.000
  483Gr      Gr  483   3.126   2.153   1.000
  484Gr      Gr  484   3.268   2.153   1.000
  485Gr      Gr  485   3.055   2.276   1.000
  486Gr      Gr  486   3.339   2.276   1.000
  487Gr      Gr  487   3.126   2.399   1.000
  488Gr      Gr  488   3.268   2.399   1.000
  489Gr      Gr  489   3.055   2.523   1.000
  490Gr      Gr  490   3.339   2.523   1.000
  491Gr      Gr  491   3.126   2.645   1.000
  492Gr      Gr  492   3.268   2.645   1.000
  493Gr      Gr  493   3.055   2.769   1.000
  494Gr      Gr  494   3.339   2.769   1.000
  495Gr      Gr  495   3.126   2.892   1.000
  496Gr      Gr  496   3.268   2.892   1.000
  497Gr      Gr  497   3.055   3.015   1.000
  498Gr      Gr  498   3.339   3.015   1.000
  499Gr      Gr  499   3.126   3.138   1.000
  500Gr      Gr  500   3.268   3.138   1.000
  501Gr      Gr  501   3.055   3.261   1.000
  502Gr      Gr  502   3.339   3.261   1.000
  503Gr      Gr  503   3.126   3.384   1.000
  504Gr      Gr  504   3.268   3.384   1.000
  505Gr      Gr  505   3.055   3.507   1.000
  506Gr      Gr  506   3.339   3.507   1.000
  507Gr      Gr  507   3.126   3.630   1.000
  508Gr      Gr  508   3.268   3.630   1.000
  509Gr      Gr  509   3.055   3.753   1.000
  510Gr      Gr  510   3.339   3.753   1.000
  511Gr      Gr  511   3.126   3.876   1.000
  512Gr      Gr  512   3.268   3.876   1.000
  513Gr      Gr  513   3.481   0.062   1.000
  514Gr      Gr  514   3.765   0.062   1.000
  515Gr      Gr  515   3.552   0.184   1.000
  516Gr      Gr  516   3.694   0.184   1.000
  517Gr      Gr  517   3.481   0.308   1.000
  518Gr      Gr  518   3.765   0.308   1.000
  519Gr      Gr  519   3.552   0.431   1.000
  520Gr      Gr  520   3.694   0.431   1.000
  521Gr      Gr  521   3.481   0.554   1.000
  522Gr      Gr  522   3.765   0.554   1.000
  523Gr      Gr  523   3.552   0.677   1.000
  524Gr      Gr  524   3.694   0.677   1.000
  525Gr      Gr  525   3.481   0.800   1.000
  526Gr      Gr  526   3.765   0.800   1.000
  527Gr      Gr  527   3.552   0.923   1.000
  528Gr      Gr  528   3.694   0.923   1.000
  529Gr      Gr  529   3.481   1.046   1.000
  530Gr      Gr  530   3.765   1.046   1.000
  531Gr      Gr  531   3.552   1.169   1.000
  532Gr      Gr  532   3.694   1.169   1.000
  533Gr      Gr  533   3.481   1.292   1.000
  534Gr      Gr  534   3.765   1.292   1.000
  535Gr      Gr  535   3.552   1.415   1.000
  536Gr      Gr  536   3.694   1.415   1.000
  537Gr      Gr  537   3.481   1.538   1.000
  538Gr      Gr  538   3.765   1.538   1.000
  539Gr      Gr  539   3.552   1.661   1.000
  540Gr      Gr  540   3.694   1.661   1.000
  541Gr      Gr  541   3.481   1.784   1.000
  542Gr      Gr  542   3.765   1.784   1.000
  543Gr      Gr  543   3.552   1.907   1.000
  544Gr      Gr  544   3.694   1.907   1.000
  545Gr      Gr  545   3.481   2.030   1.000
  546Gr      Gr  546   3.765   2.030   1.000
  547Gr      Gr  547   3.552   2.153   1.000
  548Gr      Gr  548   3.694   2.153   1.000
  549Gr      Gr  549   3.481   2.276   1.000
  550Gr      Gr  550   3.765   2.276   1.000
  551Gr      Gr  551   3.552   2.399   1.000
  552Gr      Gr  552   3.694   2.399   1.000
  553Gr      Gr  553   3.481   2.523   1.000
  554Gr      Gr  554   3.765   2.523   1.000
  555Gr      Gr  555   3.552   2.645   1.000
  556Gr      Gr  556   3.694   2.645   1.000
  557Gr      Gr  557   3.481   2.769   1.000
  558Gr      Gr  558   3.765   2.769   1.000
  559Gr      Gr  559   3.552   2.892   1.000
  560Gr      Gr  560   3.694   2.892   1.000
  561Gr      Gr  561   3.481   3.015   1.000
  562Gr      Gr  562   3.765   3.015   1.000
  563Gr      Gr  563   3.552   3.138   1.000
  564Gr      Gr  564   3.694   3.138   1.000
  565Gr      Gr  565   3.481   3.261   1.000
  566Gr      Gr  566   3.765   3.261   1.000
  567Gr      Gr  567   3.552   3.384   1.000
  568Gr      Gr  568   3.694   3.384   1.000
  569Gr      Gr  569   3.481   3.507   1.000
  570Gr      Gr  570   3.765   3.507   1.000
  571Gr      Gr  571   3.552   3.630   1.000
  572Gr      Gr  572   3.694   3.630   1.000
  573Gr      Gr  573   3.481   3.753   1.000
  574Gr      Gr  574   3.765   3.753   1.000
  575Gr      Gr  575   3.552   3.876   1.000
  576Gr      Gr  576   3.694   3.876   1.000
  577Gr      Gr  577   3.907   0.062   1.000
  578Gr      Gr  578   4.192   0.062   1.000
  579Gr      Gr  579   3.978   0.184   1.000
  580Gr      Gr  580   4.120   0.184   1.000
  581Gr      Gr  581   3.907   0.308   1.000
  582Gr      Gr  582   4.192   0.308   1.000
  583Gr      Gr  583   3.978   0.431   1.000
  584Gr      Gr  584   4.120   0.431   1.000
  585Gr      Gr  585   3.907   0.554   1.000
  586Gr      Gr  586   4.192   0.554   1.000
  587Gr      Gr  587   3.978   0.677   1.000
  588Gr      Gr  588   4.120   0.677   1.000
  589Gr      Gr  589   3.907   0.800   1.000
  590Gr      Gr  590   4.192   0.800   1.000
  591Gr      Gr  591   3.978   0.923   1.000
  592Gr      Gr  592   4.120   0.923   1.000
  593Gr      Gr  593   3.907   1.046   1.000
  594Gr      Gr  594   4.192   1.046   1.000
  595Gr      Gr  595   3.978   1.169   1.000
  596Gr      Gr  596   4.120   1.169   1.000
  597Gr      Gr  597   3.907   1.292   1.000
  598Gr      Gr  598   4.192   1.292   1.000
  599Gr      Gr  599   3.978   1.415   1.000
  600Gr      Gr  600   4.120   1.415   1.000
  601Gr      Gr  601   3.907   1.538   1.000
  602Gr      Gr  602   4.192   1.538   1.000
  603Gr      Gr  603   3.978   1.661   1.000
  604Gr      Gr  604   4.120   1.661   1.000
  605Gr      Gr  605   3.907   1.784   1.000
  606Gr      Gr  606   4.192   1.784   1.000
  607Gr      Gr  607   3.978   1.907   1.000
  608Gr      Gr  608   4.120   1.907   1.000
  609Gr      Gr  609   3.907   2.030   1.000
  610Gr      Gr  610   4.192   2.030   1.000
  611Gr      Gr  611   3.978   2.153   1.000
  612Gr      Gr  612   4.120   2.153   1.000
  613Gr      Gr  613   3.907   2.276   1.000
  614Gr      Gr  614   4.192   2.276   1.000
  615Gr      Gr  615   3.978   2.399   1.000
  616Gr      Gr  616   4.120   2.399   1.000
  617Gr      Gr  617   3.907   2.523   1.000
  618Gr      Gr  618   4.192   2.523   1.000
  619Gr      Gr  619   3.978   2.645   1.000
  620Gr      Gr  620   4.120   2.645   1.000
  621Gr      Gr  621   3.907   2.769   1.000
  622Gr      Gr  622   4.192   2.769   1.000
  623Gr      Gr  623   3.978   2.892   1.000
  624Gr      Gr  624   4.120   2.892   1.000
  625Gr      Gr  625   3.907   3.015   1.000
  626Gr      Gr  626   4.192   3.015   1.000
  627Gr      Gr  627   3.978   3.138   1.000
  628Gr      Gr  628   4.120   3.138   1.000
  629Gr      Gr  629   3.907   3.261   1.000
  630Gr      Gr  630   4.192   3.261   1.000
  631Gr      Gr  631   3.978   3.384   1.000
  632Gr      Gr  632   4.120   3.384   1.000
  633Gr      Gr  633   3.907   3.507   1.000
  634Gr      Gr  634   4.192   3.507   1.000
  635Gr      Gr  635   3.978   3.630   1.000
  636Gr      Gr  636   4.120   3.630   1.000
  637Gr      Gr  637   3.907   3.753   1.000
  638Gr      Gr  638   4.192   3.753   1.000
  639Gr      Gr  639   3.978   3.876   1.000
  640Gr      Gr  640   4.120   3.876   1.000
    1Am      N4  641   4.176   3.987   1.618
    1Am     C1A  642   4.271   3.904   1.702
    1Am     C1A  643   4.250   4.057   1.507
    1Am     C1A  644   4.113   4.096   1.701
    1Am     C1A  645   4.073   3.892   1.565
    1Am      H1  646   4.314   3.823   1.641
    1Am      H1  647   4.214   3.852   1.782
    1Am      H1  648   4.190   4.168   1.737
    1Am      H1  649   4.046   4.159   1.637
    1Am      H1  650   4.323   4.129   1.548
    1Am      H1  651   4.180   4.120   1.448
    1Am      H1  652   4.022   3.840   1.648
    1Am      H1  653   4.122   3.811   1.507
    1Am      C2  654   4.387   3.980   1.769
    1Am      C2  655   4.325   3.965   1.406
    1Am      C2  656   4.030   4.051   1.824
    1Am      C2  657   3.963   3.954   1.474
    1Am      HC  658   4.349   4.058   1.839
    1Am      HC  659   4.452   4.028   1.693
    1Am      HC  660   4.402   3.906   1.459
    1Am      HC  661   4.254   3.897   1.356
    1Am      HC  662   4.095   3.995   1.895
    1Am      HC  663   3.946   3.986   1.792
    1Am      HC  664   4.008   4.000   1.385
    1Am      HC  665   3.905   4.030   1.530
    1Am      CS  666   4.475   3.883   1.851
    1Am      CS  667   4.394   4.049   1.298
    1Am      CS  668   3.972   4.172   1.897
    1Am      CS  669   3.865   3.845   1.427
    1Am      CT  670   4.590   3.956   1.918
    1Am      CT  671   4.469   3.960   1.199
    1Am      CT  672   3.890   4.128   2.019
    1Am      CT  673   3.756   3.904   1.338
    1Am      HC  674   4.516   3.805   1.784
    1Am      HC  675   4.413   3.835   1.929
    1Am      HC  676   4.655   4.004   1.842
    1Am      HC  677   4.652   3.884   1.976
    1Am      HC  678   4.552   4.034   1.987
    1Am      HC  679   4.319   4.109   1.243
    1Am      HC  680   4.467   4.118   1.346
    1Am      HC  681   4.398   3.891   1.148
    1Am      HC  682   4.518   4.024   1.122
    1Am      HC  683   4.546   3.901   1.251
    1Am      HC  684   3.801   3.951   1.248
    1Am      HC  685   3.687   3.824   1.306
    1Am      HC  686   3.698   3.981   1.394
    1Am      HC  687   3.920   3.768   1.370
    1Am      HC  688   3.817   3.798   1.515
    1Am      HC  689   3.849   4.218   2.070
    1Am      HC  690   3.954   4.073   2.091
    1Am      HC  691   3.806   4.063   1.988
    1Am      HC  692   3.905   4.229   1.829
    1Am      HC  693   4.054   4.238   1.931
    2Am      N4  694   3.191   1.781   1.666
    2Am     C1A  695   3.266   1.652   1.645
    2Am     C1A  696   3.042   1.757   1.676
    2Am     C1A  697   3.210   1.875   1.550
    2Am     C1A  698   3.244   1.841   1.794
    2Am      H1  699   3.253   1.586   1.733
    2Am      H1  700   3.375   1.672   1.642
    2Am      H1  701   3.167   1.831   1.457
    2Am      H1  702   3.152   1.968   1.565
    2Am      H1  703   3.004   1.716   1.579
    2Am      H1  704   2.988   1.853   1.687
    2Am      H1  705   3.354   1.855   1.786
    2Am      H1  706   3.232   1.769   1.878
    2Am      C2  707   3.229   1.571   1.519
    2Am      C2  708   2.995   1.662   1.789
    2Am      C2  709   3.356   1.916   1.519
    2Am      C2  710   3.182   1.976   1.838
    2Am      HC  711   3.248   1.630   1.427
    2Am      HC  712   3.122   1.541   1.521
    2Am      HC  713   3.040   1.561   1.776
    2Am      HC  714   3.024   1.703   1.888
    2Am      HC  715   3.417   1.827   1.494
    2Am      HC  716   3.401   1.969   1.605
    2Am      HC  717   3.073   1.964   1.855
    2Am      HC  718   3.199   2.053   1.761
    2Am      CS  719   3.313   1.443   1.510
    2Am      CS  720   2.843   1.647   1.786
    2Am      CS  721   3.361   2.011   1.398
    2Am      CS  722   3.246   2.024   1.969
    2Am      CT  723   3.277   1.361   1.386
    2Am      CT  724   2.795   1.554   1.897
    2Am      CT  725   3.504   2.053   1.366
    2Am      CT  726   3.186   2.157   2.014
    2Am      HC  727   3.295   1.380   1.601
    2Am      HC  728   3.421   1.469   1.507
    2Am      HC  729   3.171   1.332   1.389
    2Am      HC  730   3.340   1.270   1.383
    2Am      HC  731   3.297   1.421   1.294
    2Am      HC  732   2.795   1.746   1.800
    2Am      HC  733   2.811   1.605   1.688
    2Am      HC  734   2.823   1.595   1.997
    2Am      HC  735   2.684   1.545   1.893
    2Am      HC  736   2.839   1.453   1.885
    2Am      HC  737   3.077   2.146   2.031
    2Am      HC  738   3.234   2.189   2.109
    2Am      HC  739   3.203   2.235   1.937
    2Am      HC  740   3.230   1.948   2.049
    2Am      HC  741   3.355   2.037   1.954
    2Am      HC  742   3.505   2.122   1.279
    2Am      HC  743   3.566   1.964   1.341
    2Am      HC  744   3.550   2.105   1.453
    2Am      HC  745   3.302   2.103   1.421
    2Am      HC  746   3.318   1.961   1.309
    3Am      N4  747   1.046   2.240   3.110
    3Am     C1A  748   1.080   2.245   2.963
    3Am     C1A  749   1.079   2.371   3.177
    3Am     C1A  750   1.127   2.135   3.181
    3Am     C1A  751   0.899   2.210   3.118
    3Am      H1  752   1.018   2.320   2.912
    3Am      H1  753   1.053   2.149   2.914
    3Am      H1  754   1.235   2.161   3.178
    3Am      H1  755   1.103   2.135   3.290
    3Am      H1  756   1.188   2.390   3.174
    3Am      H1  757   1.056   2.365   3.286
    3Am      H1  758   0.876   2.115   3.065
    3Am      H1  759   0.841   2.287   3.062
    3Am      C2  760   1.228   2.274   2.928
    3Am      C2  761   1.007   2.497   3.122
    3Am      C2  762   1.111   1.990   3.130
    3Am      C2  763   0.838   2.200   3.260
    3Am      HC  764   1.295   2.196   2.970
    3Am      HC  765   1.259   2.373   2.967
    3Am      HC  766   1.034   2.512   3.015
    3Am      HC  767   0.897   2.486   3.131
    3Am      HC  768   1.142   1.982   3.024
    3Am      HC  769   1.006   1.956   3.140
    3Am      HC  770   0.850   2.296   3.314
    3Am      HC  771   0.886   2.119   3.317
    3Am      CS  772   1.248   2.276   2.776
    3Am      CS  773   1.050   2.622   3.200
    3Am      CS  774   1.199   1.894   3.212
    3Am      CS  775   0.688   2.170   3.252
    3Am      CT  776   1.394   2.305   2.740
    3Am      CT  777   0.980   2.747   3.146
    3Am      CT  778   1.184   1.750   3.163
    3Am      CT  779   0.626   2.160   3.391
    3Am      HC  780   1.184   2.354   2.730
    3Am      HC  781   1.220   2.177   2.734
    3Am      HC  782   1.424   2.404   2.779
    3Am      HC  783   1.405   2.305   2.629
    3Am      HC  784   1.460   2.226   2.782
    3Am      HC  785   1.023   2.610   3.307
    3Am      HC  786   1.160   2.636   3.191
    3Am      HC  787   0.870   2.737   3.155
    3Am      HC  788   1.013   2.835   3.204
    3Am      HC  789   1.007   2.763   3.039
    3Am      HC  790   0.638   2.256   3.446
    3Am      HC  791   0.518   2.137   3.383
    3Am      HC  792   0.675   2.078   3.449
    3Am      HC  793   0.636   2.250   3.196
    3Am      HC  794   0.672   2.073   3.199
    3Am      HC  795   1.249   1.683   3.224
    3Am      HC  796   1.216   1.742   3.056
    3Am      HC  797   1.079   1.716   3.172
    3Am      HC  798   1.169   1.898   3.319
    3Am      HC  799   1.305   1.924   3.203
    4Am      N4  800   0.663   1.013   1.868
    4Am     C1A  801   0.650   0.863   1.873
    4Am     C1A  802   0.695   1.060   1.728
    4Am     C1A  803   0.776   1.061   1.955
    4Am     C1A  804   0.531   1.069   1.914
    4Am      H1  805   0.564   0.830   1.811
    4Am      H1  806   0.622   0.831   1.976
    4Am      H1  807   0.873   1.022   1.917
    4Am      H1  808   0.787   1.171   1.947
    4Am      H1  809   0.794   1.020   1.696
    4Am      H1  810   0.708   1.170   1.726
    4Am      H1  811   0.507   1.031   2.016
    4Am      H1  812   0.448   1.030   1.851
    4Am      C2  813   0.774   0.781   1.830
    4Am      C2  814   0.593   1.023   1.618
    4Am      C2  815   0.767   1.025   2.105
    4Am      C2  816   0.519   1.224   1.918
    4Am      HC  817   0.860   0.804   1.895
    4Am      HC  818   0.799   0.804   1.724
    4Am      HC  819   0.582   0.913   1.610
    4Am      HC  820   0.494   1.067   1.640
    4Am      HC  821   0.765   0.915   2.119
    4Am      HC  822   0.676   1.070   2.150
    4Am      HC  823   0.533   1.266   1.816
    4Am      HC  824   0.594   1.267   1.987
    4Am      CS  825   0.745   0.631   1.840
    4Am      CS  826   0.638   1.077   1.482
    4Am      CS  827   0.888   1.080   2.181
    4Am      CS  828   0.380   1.266   1.967
    4Am      CT  829   0.867   0.549   1.798
    4Am      CT  830   0.538   1.041   1.372
    4Am      CT  831   0.881   1.046   2.330
    4Am      CT  832   0.366   1.418   1.971
    4Am      HC  833   0.659   0.604   1.775
    4Am      HC  834   0.720   0.605   1.946
    4Am      HC  835   0.893   0.571   1.692
    4Am      HC  836   0.843   0.441   1.807
    4Am      HC  837   0.954   0.572   1.863
    4Am      HC  838   0.648   1.187   1.486
    4Am      HC  839   0.737   1.033   1.455
    4Am      HC  840   0.439   1.086   1.394
    4Am      HC  841   0.574   1.081   1.275
    4Am      HC  842   0.528   0.931   1.363
    4Am      HC  843   0.381   1.460   1.869
    4Am      HC  844   0.265   1.445   2.007
    4Am      HC  845   0.442   1.461   2.040
    4Am      HC  846   0.302   1.224   1.899
    4Am      HC  847   0.363   1.226   2.069
    4Am      HC  848   0.970   1.086   2.382
    4Am      HC  849   0.878   0.936   2.344
    4Am      HC  850   0.789   1.090   2.375
    4Am      HC  851   0.893   1.191   2.170
    4Am      HC  852   0.982   1.036   2.139
    5Am      N4  853   0.035   0.813   1.712
    5Am     C1A  854  -0.053   0.849   1.596
    5Am     C1A  855   0.051   0.930   1.806
    5Am     C1A  856   0.174   0.777   1.666
    5Am     C1A  857  -0.031   0.697   1.781
    5Am      H1  858  -0.156   0.872   1.631
    5Am      H1  859  -0.067   0.761   1.529
    5Am      H1  860   0.223   0.865   1.619
    5Am      H1  861   0.239   0.754   1.753
    5Am      H1  862   0.103   1.014   1.755
    5Am      H1  863   0.119   0.903   1.890
    5Am      H1  864  -0.045   0.613   1.709
    5Am      H1  865  -0.135   0.724   1.811
    5Am      C2  866  -0.006   0.968   1.508
    5Am      C2  867  -0.079   0.986   1.868
    5Am      C2  868   0.185   0.659   1.567
    5Am      C2  869   0.041   0.640   1.906
    5Am      HC  870   0.093   0.946   1.463
    5Am      HC  871   0.000   1.061   1.568
    5Am      HC  872  -0.147   1.023   1.789
    5Am      HC  873  -0.131   0.908   1.928
    5Am      HC  874   0.129   0.681   1.474
    5Am      HC  875   0.146   0.566   1.613
    5Am      HC  876   0.050   0.718   1.984
    5Am      HC  877   0.142   0.604   1.879
    5Am      CS  878  -0.106   0.993   1.393
    5Am      CS  879  -0.048   1.104   1.962
    5Am      CS  880   0.332   0.634   1.529
    5Am      CS  881  -0.038   0.522   1.965
    5Am      CT  882  -0.061   1.109   1.306
    5Am      CT  883  -0.175   1.161   2.024
    5Am      CT  884   0.344   0.517   1.431
    5Am      CT  885   0.032   0.466   2.088
    5Am      HC  886  -0.206   1.016   1.435
    5Am      HC  887  -0.114   0.901   1.330
    5Am      HC  888  -0.054   1.202   1.366
    5Am      HC  889  -0.134   1.125   1.224
    5Am      HC  890   0.038   1.088   1.260
    5Am      HC  891   0.020   1.070   2.043
    5Am      HC  892   0.003   1.184   1.904
    5Am      HC  893  -0.227   1.083   2.084
    5Am      HC  894  -0.150   1.245   2.091
    5Am      HC  895  -0.244   1.197   1.945
    5Am      HC  896   0.041   0.544   2.167
    5Am      HC  897  -0.027   0.381   2.128
    5Am      HC  898   0.134   0.429   2.062
    5Am      HC  899  -0.140   0.556   1.994
    5Am      HC  900  -0.047   0.442   1.889
    5Am      HC  901   0.451   0.502   1.406
    5Am      HC  902   0.288   0.539   1.338
    5Am      HC  903   0.305   0.424   1.477
    5Am      HC  904   0.391   0.611   1.620
    5Am      HC  905   0.374   0.725   1.482
    6Am      N4  906   2.624   2.444   1.738
    6Am     C1A  907   2.621   2.531   1.861
    6Am     C1A  908   2.531   2.497   1.632
    6Am     C1A  909   2.578   2.304   1.769
    6Am     C1A  910   2.767   2.445   1.690
    6Am      H1  911   2.659   2.633   1.838
    6Am      H1  912   2.693   2.493   1.937
    6Am      H1  913   2.472   2.306   1.801
    6Am      H1  914   2.578   2.243   1.676
    6Am      H1  915   2.426   2.493   1.668
    6Am      H1  916   2.533   2.430   1.543
    6Am      H1  917   2.835   2.409   1.771
    6Am      H1  918   2.801   2.549   1.671
    6Am      C2  919   2.483   2.547   1.931
    6Am      C2  920   2.558   2.641   1.583
    6Am      C2  921   2.658   2.227   1.876
    6Am      C2  922   2.797   2.362   1.563
    6Am      HC  923   2.445   2.448   1.964
    6Am      HC  924   2.410   2.593   1.862
    6Am      HC  925   2.550   2.714   1.666
    6Am      HC  926   2.659   2.649   1.538
    6Am      HC  927   2.654   2.280   1.974
    6Am      HC  928   2.764   2.216   1.845
    6Am      HC  929   2.739   2.400   1.477
    6Am      HC  930   2.774   2.255   1.579
    6Am      CS  931   2.495   2.637   2.054
    6Am      CS  932   2.456   2.682   1.475
    6Am      CS  933   2.600   2.087   1.897
    6Am      CS  934   2.946   2.372   1.526
    6Am      CT  935   2.360   2.654   2.124
    6Am      CT  936   2.481   2.824   1.425
    6Am      CT  937   2.678   2.010   2.003
    6Am      CT  938   2.978   2.291   1.401
    6Am      HC  939   2.532   2.737   2.024
    6Am      HC  940   2.567   2.593   2.126
    6Am      HC  941   2.287   2.700   2.055
    6Am      HC  942   2.372   2.719   2.212
    6Am      HC  943   2.322   2.555   2.157
    6Am      HC  944   2.463   2.612   1.389
    6Am      HC  945   2.354   2.676   1.517
    6Am      HC  946   2.583   2.831   1.380
    6Am      HC  947   2.406   2.850   1.348
    6Am      HC  948   2.473   2.896   1.509
    6Am      HC  949   2.919   2.329   1.314
    6Am      HC  950   3.086   2.300   1.377
    6Am      HC  951   2.954   2.184   1.417
    6Am      HC  952   2.973   2.478   1.508
    6Am      HC  953   3.008   2.334   1.610
    6Am      HC  954   2.634   1.909   2.016
    6Am      HC  955   2.674   2.063   2.100
    6Am      HC  956   2.784   1.998   1.972
    6Am      HC  957   2.604   2.030   1.801
    6Am      HC  958   2.494   2.095   1.930
    7Am      N4  959   4.099   3.221   2.314
    7Am     C1A  960   3.981   3.315   2.325
    7Am     C1A  961   4.097   3.118   2.424
    7Am     C1A  962   4.229   3.296   2.329
    7Am     C1A  963   4.088   3.157   2.178
    7Am      H1  964   3.886   3.259   2.310
    7Am      H1  965   3.982   3.388   2.241
    7Am      H1  966   4.236   3.340   2.430
    7Am      H1  967   4.314   3.225   2.323
    7Am      H1  968   4.108   3.168   2.523
    7Am      H1  969   4.186   3.053   2.416
    7Am      H1  970   4.087   3.234   2.099
    7Am      H1  971   3.990   3.105   2.168
    7Am      C2  972   3.969   3.395   2.457
    7Am      C2  973   3.971   3.027   2.430
    7Am      C2  974   4.255   3.409   2.226
    7Am      C2  975   4.199   3.055   2.142
    7Am      HC  976   4.058   3.459   2.472
    7Am      HC  977   3.958   3.326   2.543
    7Am      HC  978   3.880   3.088   2.447
    7Am      HC  979   3.961   2.969   2.336
    7Am      HC  980   4.177   3.487   2.233
    7Am      HC  981   4.257   3.368   2.123
    7Am      HC  982   4.199   2.970   2.214
    7Am      HC  983   4.299   3.104   2.142
    7Am      CS  984   3.845   3.485   2.454
    7Am      CS  985   3.983   2.928   2.546
    7Am      CS  986   4.391   3.476   2.253
    7Am      CS  987   4.176   2.997   2.002
    7Am      CT  988   3.831   3.565   2.583
    7Am      CT  989   3.861   2.837   2.554
    7Am      CT  990   4.418   3.588   2.153
    7Am      CT  991   4.284   2.896   1.965
    7Am      HC  992   3.754   3.423   2.440
    7Am      HC  993   3.853   3.557   2.369
    7Am      HC  994   3.821   3.496   2.670
    7Am      HC  995   3.741   3.629   2.578
    7Am      HC  996   3.920   3.630   2.599
    7Am      HC  997   4.074   2.865   2.532
    7Am      HC  998   3.993   2.983   2.642
    7Am      HC  999   3.850   2.779   2.460
    7Am      HC 1000   3.872   2.766   2.639
    7Am      HC 1001   3.769   2.898   2.570
    7Am      HC 1002   4.285   2.812   2.036
    7Am      HC 1003   4.265   2.856   1.863
    7Am      HC 1004   4.384   2.945   1.965
    7Am      HC 1005   4.077   2.946   1.998
    7Am      HC 1006   4.176   3.079   1.927
    7Am      HC 1007   4.517   3.634   2.175
    7Am      HC 1008   4.340   3.666   2.160
    7Am      HC 1009   4.420   3.547   2.050
    7Am      HC 1010   4.472   3.400   2.246
    7Am      HC 1011   4.391   3.519   2.356
    8Am      N4 1012   1.913   2.802   1.719
    8Am     C1A 1013   1.823   2.714   1.801
    8Am     C1A 1014   2.005   2.720   1.632
    8Am     C1A 1015   2.003   2.885   1.807
    8Am     C1A 1016   1.823   2.889   1.636
    8Am      H1 1017   1.755   2.656   1.735
    8Am      H1 1018   1.754   2.777   1.862
    8Am      H1 1019   2.071   2.819   1.865
    8Am      H1 1020   2.071   2.947   1.745
    8Am      H1 1021   2.073   2.658   1.695
    8Am      H1 1022   2.073   2.786   1.575
    8Am      H1 1023   1.754   2.947   1.701
    8Am      H1 1024   1.755   2.826   1.574
    8Am      C2 1025   1.892   2.614   1.897
    8Am      C2 1026   1.936   2.624   1.531
    8Am      C2 1027   1.932   2.980   1.907
    8Am      C2 1028   1.893   2.990   1.541
    8Am      HC 1029   1.955   2.668   1.971
    8Am      HC 1030   1.956   2.544   1.840
    8Am      HC 1031   1.873   2.550   1.585
    8Am      HC 1032   1.873   2.682   1.460
    8Am      HC 1033   1.869   2.922   1.978
    8Am      HC 1034   1.869   3.054   1.853
    8Am      HC 1035   1.957   2.936   1.468
    8Am      HC 1036   1.955   3.061   1.599
    8Am      CS 1037   1.788   2.532   1.974
    8Am      CS 1038   2.041   2.547   1.450
    8Am      CS 1039   2.036   3.058   1.990
    8Am      CS 1040   1.789   3.071   1.463
    8Am      CT 1041   1.855   2.433   2.069
    8Am      CT 1042   1.975   2.453   1.350
    8Am      CT 1043   1.968   3.152   2.089
    8Am      CT 1044   1.856   3.171   1.369
    8Am      HC 1045   1.725   2.476   1.902
    8Am      HC 1046   1.723   2.600   2.033
    8Am      HC 1047   1.919   2.362   2.012
    8Am      HC 1048   1.777   2.375   2.123
    8Am      HC 1049   1.917   2.487   2.143
    8Am      HC 1050   2.105   2.619   1.395
    8Am      HC 1051   2.105   2.487   1.519
    8Am      HC 1052   1.912   2.510   1.278
    8Am      HC 1053   2.053   2.398   1.293
    8Am      HC 1054   1.912   2.378   1.403
    8Am      HC 1055   1.920   3.118   1.295
    8Am      HC 1056   1.779   3.228   1.314
    8Am      HC 1057   1.919   3.242   1.426
    8Am      HC 1058   1.726   3.003   1.403
    8Am      HC 1059   1.724   3.127   1.534
    8Am      HC 1060   2.045   3.207   2.147
    8Am      HC 1061   1.904   3.094   2.160
    8Am      HC 1062   1.904   3.226   2.035
    8Am      HC 1063   2.100   3.118   1.922
    8Am      HC 1064   2.100   2.987   2.046
    9Am      N4 1065   0.458   4.001   1.586
    9Am     C1A 1066   0.398   4.059   1.711
    9Am     C1A 1067   0.352   3.936   1.500
    9Am     C1A 1068   0.558   3.894   1.618
    9Am     C1A 1069   0.523   4.116   1.513
    9Am      H1 1070   0.326   4.140   1.686
    9Am      H1 1071   0.476   4.109   1.772
    9Am      H1 1072   0.508   3.808   1.668
    9Am      H1 1073   0.599   3.850   1.524
    9Am      H1 1074   0.308   3.849   1.554
    9Am      H1 1075   0.398   3.891   1.410
    9Am      H1 1076   0.598   4.165   1.579
    9Am      H1 1077   0.448   4.196   1.494
    9Am      C2 1078   0.324   3.959   1.804
    9Am      C2 1079   0.236   4.027   1.453
    9Am      C2 1080   0.678   3.936   1.706
    9Am      C2 1081   0.592   4.083   1.379
    9Am      HC 1082   0.393   3.881   1.840
    9Am      HC 1083   0.239   3.912   1.751
    9Am      HC 1084   0.181   4.068   1.540
    9Am      HC 1085   0.275   4.111   1.392
    9Am      HC 1086   0.643   3.972   1.805
    9Am      HC 1087   0.737   4.015   1.656
    9Am      HC 1088   0.519   4.041   1.307
    9Am      HC 1089   0.674   4.009   1.395
    9Am      CS 1090   0.269   4.032   1.928
    9Am      CS 1091   0.137   3.947   1.367
    9Am      CS 1092   0.771   3.816   1.731
    9Am      CS 1093   0.654   4.209   1.317
    9Am      CT 1094   0.196   3.935   2.021
    9Am      CT 1095   0.021   4.036   1.320
    9Am      CT 1096   0.890   3.856   1.818
    9Am      CT 1097   0.723   4.178   1.185
    9Am      HC 1098   0.197   4.111   1.896
    9Am      HC 1099   0.352   4.079   1.984
    9Am      HC 1100   0.110   3.888   1.968
    9Am      HC 1101   0.157   3.990   2.109
    9Am      HC 1102   0.265   3.856   2.056
    9Am      HC 1103   0.189   3.906   1.278
    9Am      HC 1104   0.095   3.863   1.427
    9Am      HC 1105   0.060   4.120   1.258
    9Am      HC 1106  -0.049   3.976   1.258
    9Am      HC 1107  -0.034   4.077   1.407
    9Am      HC 1108   0.650   4.136   1.112
    9Am      HC 1109   0.766   4.271   1.143
    9Am      HC 1110   0.805   4.104   1.201
    9Am      HC 1111   0.574   4.284   1.299
    9Am      HC 1112   0.729   4.252   1.387
    9Am      HC 1113   0.956   3.768   1.834
    9Am      HC 1114   0.855   3.893   1.916
    9Am      HC 1115   0.950   3.936   1.768
    9Am      HC 1116   0.809   3.778   1.633
    9Am      HC 1117   0.715   3.735   1.782
   10Am      N4 1118   0.360  -0.034   2.806
   10Am     C1A 1119   0.440  -0.144   2.740
   10Am     C1A 1120   0.306   0.062   2.704
   10Am     C1A 1121   0.446   0.046   2.900
   10Am     C1A 1122   0.248  -0.103   2.880
   10Am      H1 1123   0.374  -0.205   2.674
   10Am      H1 1124   0.476  -0.216   2.816
   10Am      H1 1125   0.526   0.099   2.843
   10Am      H1 1126   0.387   0.129   2.945
   10Am      H1 1127   0.390   0.114   2.652
   10Am      H1 1128   0.251   0.144   2.755
   10Am      H1 1129   0.290  -0.176   2.953
   10Am      H1 1130   0.188  -0.165   2.810
   10Am      C2 1131   0.562  -0.099   2.656
   10Am      C2 1132   0.214   0.003   2.595
   10Am      C2 1133   0.514  -0.031   3.015
   10Am      C2 1134   0.151  -0.011   2.957
   10Am      HC 1135   0.635  -0.045   2.720
   10Am      HC 1136   0.530  -0.033   2.573
   10Am      HC 1137   0.267  -0.073   2.536
   10Am      HC 1138   0.124  -0.043   2.641
   10Am      HC 1139   0.582  -0.109   2.975
   10Am      HC 1140   0.438  -0.079   3.080
   10Am      HC 1141   0.100   0.059   2.888
   10Am      HC 1142   0.205   0.047   3.035
   10Am      CS 1143   0.633  -0.221   2.595
   10Am      CS 1144   0.167   0.113   2.499
   10Am      CS 1145   0.598   0.064   3.102
   10Am      CS 1146   0.043  -0.094   3.028
   10Am      CT 1147   0.754  -0.178   2.513
   10Am      CT 1148   0.075   0.056   2.391
   10Am      CT 1149   0.666  -0.012   3.216
   10Am      CT 1150  -0.055  -0.005   3.105
   10Am      HC 1151   0.563  -0.276   2.530
   10Am      HC 1152   0.668  -0.288   2.677
   10Am      HC 1153   0.723  -0.112   2.429
   10Am      HC 1154   0.804  -0.268   2.470
   10Am      HC 1155   0.828  -0.124   2.576
   10Am      HC 1156   0.111   0.191   2.555
   10Am      HC 1157   0.255   0.160   2.450
   10Am      HC 1158  -0.015   0.010   2.437
   10Am      HC 1159   0.043   0.138   2.323
   10Am      HC 1160   0.129  -0.021   2.331
   10Am      HC 1161  -0.106   0.066   3.035
   10Am      HC 1162  -0.131  -0.067   3.154
   10Am      HC 1163  -0.001   0.054   3.182
   10Am      HC 1164  -0.014  -0.153   2.953
   10Am      HC 1165   0.090  -0.164   3.099
   10Am      HC 1166   0.726   0.060   3.277
   10Am      HC 1167   0.734  -0.090   3.176
   10Am      HC 1168   0.590  -0.059   3.281
   10Am      HC 1169   0.533   0.143   3.145
   10Am      HC 1170   0.676   0.112   3.039
   11Am      N4 1171   4.223   0.618   2.901
   11Am     C1A 1172   4.091   0.595   2.971
   11Am     C1A 1173   4.335   0.544   2.970
   11Am     C1A 1174   4.261   0.764   2.904
   11Am     C1A 1175   4.204   0.570   2.760
   11Am      H1 1176   4.063   0.488   2.966
   11Am      H1 1177   4.009   0.648   2.918
   11Am      H1 1178   4.278   0.797   3.009
   11Am      H1 1179   4.359   0.779   2.855
   11Am      H1 1180   4.349   0.584   3.072
   11Am      H1 1181   4.431   0.565   2.918
   11Am      H1 1182   4.119   0.623   2.712
   11Am      H1 1183   4.172   0.463   2.760
   11Am      C2 1184   4.084   0.638   3.120
   11Am      C2 1185   4.319   0.391   2.980
   11Am      C2 1186   4.160   0.863   2.839
   11Am      C2 1187   4.326   0.583   2.666
   11Am      HC 1188   4.103   0.746   3.131
   11Am      HC 1189   4.159   0.581   3.180
   11Am      HC 1190   4.228   0.364   3.038
   11Am      HC 1191   4.313   0.345   2.879
   11Am      HC 1192   4.062   0.858   2.891
   11Am      HC 1193   4.147   0.839   2.731
   11Am      HC 1194   4.411   0.524   2.705
   11Am      HC 1195   4.356   0.689   2.655
   11Am      CS 1196   3.946   0.608   3.178
   11Am      CS 1197   4.440   0.329   3.051
   11Am      CS 1198   4.212   1.007   2.849
   11Am      CS 1199   4.292   0.530   2.526
   11Am      CT 1200   3.937   0.649   3.325
   11Am      CT 1201   4.427   0.177   3.062
   11Am      CT 1202   4.114   1.105   2.786
   11Am      CT 1203   4.412   0.541   2.432
   11Am      HC 1204   3.924   0.500   3.170
   11Am      HC 1205   3.868   0.664   3.121
   11Am      HC 1206   4.012   0.593   3.385
   11Am      HC 1207   3.836   0.627   3.364
   11Am      HC 1208   3.956   0.758   3.336
   11Am      HC 1209   4.533   0.353   2.995
   11Am      HC 1210   4.449   0.371   3.154
   11Am      HC 1211   4.420   0.132   2.961
   11Am      HC 1212   4.515   0.136   3.114
   11Am      HC 1213   4.336   0.151   3.120
   11Am      HC 1214   4.498   0.482   2.471
   11Am      HC 1215   4.385   0.502   2.332
   11Am      HC 1216   4.443   0.648   2.421
   11Am      HC 1217   4.263   0.423   2.533
   11Am      HC 1218   4.207   0.587   2.483
   11Am      HC 1219   4.155   1.208   2.794
   11Am      HC 1220   4.016   1.101   2.837
   11Am      HC 1221   4.100   1.082   2.678
   11Am      HC 1222   4.310   1.015   2.797
   11Am      HC 1223   4.226   1.034   2.956
   12Am      N4 1224   0.251   1.525   2.889
   12Am     C1A 1225   0.144   1.575   2.796
   12Am     C1A 1226   0.325   1.408   2.830
   12Am     C1A 1227   0.191   1.476   3.019
   12Am     C1A 1228   0.344   1.641   2.913
   12Am      H1 1229   0.190   1.613   2.702
   12Am      H1 1230   0.093   1.663   2.839
   12Am      H1 1231   0.126   1.388   3.000
   12Am      H1 1232   0.271   1.437   3.086
   12Am      H1 1233   0.256   1.322   2.817
   12Am      H1 1234   0.401   1.370   2.902
   12Am      H1 1235   0.287   1.728   2.954
   12Am      H1 1236   0.384   1.678   2.816
   12Am      C2 1237   0.035   1.472   2.755
   12Am      C2 1238   0.396   1.432   2.695
   12Am      C2 1239   0.109   1.579   3.100
   12Am      C2 1240   0.464   1.615   3.008
   12Am      HC 1241  -0.020   1.437   2.845
   12Am      HC 1242   0.080   1.386   2.703
   12Am      HC 1243   0.323   1.462   2.618
   12Am      HC 1244   0.473   1.512   2.706
   12Am      HC 1245   0.022   1.615   3.040
   12Am      HC 1246   0.172   1.665   3.129
   12Am      HC 1247   0.529   1.535   2.967
   12Am      HC 1248   0.428   1.587   3.109
   12Am      CS 1249  -0.066   1.537   2.660
   12Am      CS 1250   0.467   1.305   2.648
   12Am      CS 1251   0.054   1.515   3.228
   12Am      CS 1252   0.549   1.742   3.022
   12Am      CT 1253  -0.175   1.437   2.619
   12Am      CT 1254   0.538   1.328   2.514
   12Am      CT 1255  -0.027   1.616   3.309
   12Am      CT 1256   0.668   1.719   3.115
   12Am      HC 1257  -0.014   1.572   2.568
   12Am      HC 1258  -0.115   1.624   2.710
   12Am      HC 1259  -0.130   1.350   2.567
   12Am      HC 1260  -0.247   1.487   2.550
   12Am      HC 1261  -0.230   1.402   2.709
   12Am      HC 1262   0.542   1.273   2.723
   12Am      HC 1263   0.393   1.223   2.635
   12Am      HC 1264   0.615   1.407   2.525
   12Am      HC 1265   0.589   1.234   2.483
   12Am      HC 1266   0.465   1.357   2.436
   12Am      HC 1267   0.733   1.638   3.075
   12Am      HC 1268   0.727   1.812   3.124
   12Am      HC 1269   0.633   1.689   3.216
   12Am      HC 1270   0.587   1.773   2.922
   12Am      HC 1271   0.487   1.824   3.064
   12Am      HC 1272  -0.065   1.567   3.402
   12Am      HC 1273  -0.114   1.652   3.250
   12Am      HC 1274   0.036   1.702   3.339
   12Am      HC 1275   0.139   1.479   3.291
   12Am      HC 1276  -0.011   1.429   3.203
   13Am      N4 1277   1.596   3.817   1.597
   13Am     C1A 1278   1.644   3.675   1.609
   13Am     C1A 1279   1.646   3.902   1.711
   13Am     C1A 1280   1.446   3.825   1.602
   13Am     C1A 1281   1.648   3.868   1.464
   13Am      H1 1282   1.755   3.671   1.602
   13Am      H1 1283   1.609   3.615   1.523
   13Am      H1 1284   1.409   3.791   1.701
   13Am      H1 1285   1.412   3.931   1.595
   13Am      H1 1286   1.604   3.866   1.807
   13Am      H1 1287   1.607   4.006   1.701
   13Am      H1 1288   1.613   3.802   1.382
   13Am      H1 1289   1.759   3.858   1.461
   13Am      C2 1290   1.602   3.600   1.738
   13Am      C2 1291   1.800   3.911   1.727
   13Am      C2 1292   1.369   3.745   1.493
   13Am      C2 1293   1.612   4.014   1.427
   13Am      HC 1294   1.492   3.593   1.746
   13Am      HC 1295   1.643   3.651   1.828
   13Am      HC 1296   1.843   3.810   1.745
   13Am      HC 1297   1.846   3.955   1.637
   13Am      HC 1298   1.392   3.637   1.501
   13Am      HC 1299   1.396   3.781   1.392
   13Am      HC 1300   1.653   4.084   1.503
   13Am      HC 1301   1.503   4.026   1.421
   13Am      CS 1302   1.658   3.457   1.737
   13Am      CS 1303   1.836   4.000   1.847
   13Am      CS 1304   1.217   3.762   1.511
   13Am      CS 1305   1.672   4.051   1.291
   13Am      CT 1306   1.618   3.381   1.864
   13Am      CT 1307   1.987   4.010   1.865
   13Am      CT 1308   1.140   3.684   1.405
   13Am      CT 1309   1.638   4.194   1.253
   13Am      HC 1310   1.769   3.460   1.731
   13Am      HC 1311   1.618   3.402   1.649
   13Am      HC 1312   1.658   3.433   1.954
   13Am      HC 1313   1.659   3.278   1.860
   13Am      HC 1314   1.507   3.375   1.872
   13Am      HC 1315   1.795   4.102   1.831
   13Am      HC 1316   1.792   3.958   1.939
   13Am      HC 1317   2.034   4.054   1.774
   13Am      HC 1318   2.010   4.075   1.952
   13Am      HC 1319   2.031   3.909   1.883
   13Am      HC 1320   1.679   4.265   1.328
   13Am      HC 1321   1.683   4.218   1.154
   13Am      HC 1322   1.528   4.207   1.246
   13Am      HC 1323   1.783   4.040   1.294
   13Am      HC 1324   1.633   3.983   1.213
   13Am      HC 1325   1.031   3.698   1.420
   13Am      HC 1326   1.164   3.575   1.412
   13Am      HC 1327   1.167   3.720   1.303
   13Am      HC 1328   1.191   3.869   1.502
   13Am      HC 1329   1.187   3.725   1.611
   14Am      N4 1330   2.621  -0.065   1.843
   14Am     C1A 1331   2.595   0.039   1.948
   14Am     C1A 1332   2.502  -0.156   1.826
   14Am     C1A 1333   2.736  -0.154   1.881
   14Am     C1A 1334   2.650   0.010   1.715
   14Am      H1 1335   2.512   0.106   1.917
   14Am      H1 1336   2.682   0.107   1.957
   14Am      H1 1337   2.712  -0.211   1.974
   14Am      H1 1338   2.752  -0.232   1.804
   14Am      H1 1339   2.484  -0.213   1.920
   14Am      H1 1340   2.524  -0.235   1.751
   14Am      H1 1341   2.736   0.079   1.730
   14Am      H1 1342   2.565   0.077   1.690
   14Am      C2 1343   2.562  -0.013   2.090
   14Am      C2 1344   2.368  -0.088   1.786
   14Am      C2 1345   2.872  -0.083   1.905
   14Am      C2 1346   2.680  -0.076   1.590
   14Am      HC 1347   2.647  -0.073   2.130
   14Am      HC 1348   2.470  -0.075   2.089
   14Am      HC 1349   2.337  -0.015   1.863
   14Am      HC 1350   2.379  -0.037   1.689
   14Am      HC 1351   2.864  -0.010   1.987
   14Am      HC 1352   2.905  -0.032   1.812
   14Am      HC 1353   2.593  -0.141   1.566
   14Am      HC 1354   2.769  -0.140   1.607
   14Am      CS 1355   2.539   0.104   2.187
   14Am      CS 1356   2.257  -0.193   1.773
   14Am      CS 1357   2.980  -0.186   1.943
   14Am      CS 1358   2.707   0.013   1.469
   14Am      CT 1359   2.506   0.055   2.327
   14Am      CT 1360   2.124  -0.128   1.734
   14Am      CT 1361   3.115  -0.118   1.966
   14Am      CT 1362   2.737  -0.071   1.344
   14Am      HC 1363   2.454   0.166   2.150
   14Am      HC 1364   2.630   0.168   2.191
   14Am      HC 1365   2.414  -0.007   2.326
   14Am      HC 1366   2.490   0.141   2.395
   14Am      HC 1367   2.591  -0.006   2.367
   14Am      HC 1368   2.284  -0.268   1.696
   14Am      HC 1369   2.243  -0.245   1.870
   14Am      HC 1370   2.134  -0.076   1.636
   14Am      HC 1371   2.046  -0.205   1.725
   14Am      HC 1372   2.093  -0.054   1.811
   14Am      HC 1373   2.650  -0.135   1.320
   14Am      HC 1374   2.757  -0.003   1.258
   14Am      HC 1375   2.827  -0.134   1.361
   14Am      HC 1376   2.619   0.077   1.448
   14Am      HC 1377   2.795   0.078   1.490
   14Am      HC 1378   3.191  -0.194   1.994
   14Am      HC 1379   3.107  -0.044   2.049
   14Am      HC 1380   3.148  -0.066   1.874
   14Am      HC 1381   2.991  -0.261   1.862
   14Am      HC 1382   2.950  -0.238   2.036
   15Am      N4 1383   0.126   3.226   2.480
   15Am     C1A 1384   0.176   3.319   2.588
   15Am     C1A 1385   0.218   3.109   2.462
   15Am     C1A 1386   0.120   3.296   2.347
   15Am     C1A 1387  -0.011   3.181   2.524
   15Am      H1 1388   0.176   3.266   2.686
   15Am      H1 1389   0.105   3.403   2.602
   15Am      H1 1390   0.222   3.325   2.314
   15Am      H1 1391   0.086   3.225   2.268
   15Am      H1 1392   0.318   3.143   2.426
   15Am      H1 1393   0.182   3.043   2.380
   15Am      H1 1394  -0.077   3.269   2.540
   15Am      H1 1395  -0.005   3.132   2.624
   15Am      C2 1396   0.317   3.379   2.566
   15Am      C2 1397   0.242   3.019   2.586
   15Am      C2 1398   0.030   3.422   2.339
   15Am      C2 1399  -0.085   3.083   2.429
   15Am      HC 1400   0.319   3.440   2.473
   15Am      HC 1401   0.393   3.299   2.559
   15Am      HC 1402   0.286   3.078   2.668
   15Am      HC 1403   0.146   2.975   2.621
   15Am      HC 1404   0.065   3.499   2.410
   15Am      HC 1405  -0.076   3.396   2.362
   15Am      HC 1406  -0.027   2.990   2.416
   15Am      HC 1407  -0.101   3.130   2.330
   15Am      CS 1408   0.354   3.471   2.683
   15Am      CS 1409   0.338   2.904   2.553
   15Am      CS 1410   0.033   3.482   2.198
   15Am      CS 1411  -0.223   3.046   2.486
   15Am      CT 1412   0.493   3.532   2.663
   15Am      CT 1413   0.361   2.815   2.674
   15Am      CT 1414  -0.055   3.606   2.189
   15Am      CT 1415  -0.297   2.950   2.394
   15Am      HC 1416   0.354   3.413   2.778
   15Am      HC 1417   0.280   3.553   2.691
   15Am      HC 1418   0.570   3.452   2.657
   15Am      HC 1419   0.517   3.598   2.749
   15Am      HC 1420   0.495   3.593   2.570
   15Am      HC 1421   0.295   2.842   2.471
   15Am      HC 1422   0.435   2.946   2.519
   15Am      HC 1423   0.266   2.770   2.709
   15Am      HC 1424   0.431   2.733   2.647
   15Am      HC 1425   0.406   2.874   2.757
   15Am      HC 1426  -0.239   2.856   2.381
   15Am      HC 1427  -0.396   2.925   2.438
   15Am      HC 1428  -0.313   2.997   2.294
   15Am      HC 1429  -0.210   2.997   2.585
   15Am      HC 1430  -0.284   3.138   2.499
   15Am      HC 1431  -0.050   3.648   2.086
   15Am      HC 1432  -0.020   3.684   2.260
   15Am      HC 1433  -0.160   3.581   2.212
   15Am      HC 1434  -0.003   3.407   2.124
   15Am      HC 1435   0.138   3.510   2.172
   16Am      N4 1436   4.238   3.595   2.941
   16Am     C1A 1437   4.108   3.535   2.987
   16Am     C1A 1438   4.345   3.489   2.931
   16Am     C1A 1439   4.289   3.697   3.039
   16Am     C1A 1440   4.211   3.657   2.806
   16Am      H1 1441   4.070   3.462   2.912
   16Am      H1 1442   4.029   3.614   2.990
   16Am      H1 1443   4.312   3.649   3.136
   16Am      H1 1444   4.387   3.738   3.004
   16Am      H1 1445   4.366   3.447   3.032
   16Am      H1 1446   4.442   3.535   2.900
   16Am      H1 1447   4.129   3.732   2.815
   16Am      H1 1448   4.170   3.580   2.737
   16Am      C2 1449   4.109   3.465   3.125
   16Am      C2 1450   4.317   3.371   2.836
   16Am      C2 1451   4.196   3.818   3.066
   16Am      C2 1452   4.331   3.725   2.736
   16Am      HC 1453   4.138   3.536   3.205
   16Am      HC 1454   4.180   3.380   3.125
   16Am      HC 1455   4.226   3.316   2.868
   16Am      HC 1456   4.303   3.407   2.732
   16Am      HC 1457   4.099   3.784   3.109
   16Am      HC 1458   4.177   3.875   2.973
   16Am      HC 1459   4.412   3.651   2.718
   16Am      HC 1460   4.370   3.808   2.798
   16Am      CS 1461   3.970   3.410   3.159
   16Am      CS 1462   4.434   3.272   2.836
   16Am      CS 1463   4.260   3.914   3.167
   16Am      CS 1464   4.288   3.783   2.601
   16Am      CT 1465   3.970   3.340   3.295
   16Am      CT 1466   4.407   3.154   2.743
   16Am      CT 1467   4.170   4.033   3.196
   16Am      CT 1468   4.406   3.851   2.530
   16Am      HC 1469   3.938   3.337   3.082
   16Am      HC 1470   3.896   3.493   3.162
   16Am      HC 1471   4.041   3.255   3.295
   16Am      HC 1472   3.868   3.302   3.317
   16Am      HC 1473   3.999   3.412   3.375
   16Am      HC 1474   4.527   3.323   2.804
   16Am      HC 1475   4.449   3.232   2.939
   16Am      HC 1476   4.394   3.190   2.638
   16Am      HC 1477   4.494   3.084   2.745
   16Am      HC 1478   4.316   3.099   2.774
   16Am      HC 1479   4.487   3.777   2.512
   16Am      HC 1480   4.372   3.892   2.433
   16Am      HC 1481   4.445   3.934   2.592
   16Am      HC 1482   4.250   3.702   2.536
   16Am      HC 1483   4.208   3.858   2.616
   16Am      HC 1484   4.219   4.101   3.269
   16Am      HC 1485   4.073   3.999   3.238
   16Am      HC 1486   4.150   4.090   3.102
   16Am      HC 1487   4.357   3.951   3.127
   16Am      HC 1488   4.280   3.860   3.263
   17Am      N4 1489   0.411   1.957   1.480
   17Am     C1A 1490   0.407   1.823   1.550
   17Am     C1A 1491   0.293   1.975   1.389
   17Am     C1A 1492   0.534   1.969   1.393
   17Am     C1A 1493   0.412   2.061   1.589
   17Am      H1 1494   0.317   1.818   1.616
   17Am      H1 1495   0.493   1.813   1.619
   17Am      H1 1496   0.530   1.894   1.311
   17Am      H1 1497   0.534   2.066   1.341
   17Am      H1 1498   0.296   1.900   1.307
   17Am      H1 1499   0.300   2.073   1.336
   17Am      H1 1500   0.498   2.044   1.658
   17Am      H1 1501   0.323   2.049   1.655
   17Am      C2 1502   0.405   1.698   1.458
   17Am      C2 1503   0.153   1.967   1.455
   17Am      C2 1504   0.671   1.953   1.465
   17Am      C2 1505   0.417   2.209   1.544
   17Am      HC 1506   0.497   1.695   1.396
   17Am      HC 1507   0.316   1.699   1.392
   17Am      HC 1508   0.138   1.868   1.502
   17Am      HC 1509   0.142   2.046   1.532
   17Am      HC 1510   0.679   1.853   1.512
   17Am      HC 1511   0.683   2.032   1.542
   17Am      HC 1512   0.328   2.233   1.482
   17Am      HC 1513   0.509   2.228   1.485
   17Am      CS 1514   0.400   1.570   1.542
   17Am      CS 1515   0.043   1.988   1.350
   17Am      CS 1516   0.786   1.967   1.364
   17Am      CS 1517   0.417   2.303   1.665
   17Am      CT 1518   0.399   1.446   1.453
   17Am      CT 1519  -0.096   1.980   1.414
   17Am      CT 1520   0.921   1.953   1.433
   17Am      CT 1521   0.421   2.449   1.622
   17Am      HC 1522   0.308   1.570   1.605
   17Am      HC 1523   0.489   1.565   1.608
   17Am      HC 1524   0.309   1.447   1.387
   17Am      HC 1525   0.395   1.355   1.517
   17Am      HC 1526   0.490   1.442   1.391
   17Am      HC 1527   0.055   2.087   1.302
   17Am      HC 1528   0.051   1.909   1.272
   17Am      HC 1529  -0.107   2.059   1.491
   17Am      HC 1530  -0.173   1.995   1.336
   17Am      HC 1531  -0.111   1.881   1.461
   17Am      HC 1532   0.333   2.474   1.560
   17Am      HC 1533   0.421   2.514   1.711
   17Am      HC 1534   0.514   2.469   1.563
   17Am      HC 1535   0.325   2.286   1.725
   17Am      HC 1536   0.506   2.282   1.729
   17Am      HC 1537   1.002   1.963   1.358
   17Am      HC 1538   0.930   1.853   1.480
   17Am      HC 1539   0.934   2.031   1.510
   17Am      HC 1540   0.781   2.068   1.316
   17Am      HC 1541   0.777   1.889   1.286
   18Am      N4 1542   4.177   1.928   2.456
   18Am     C1A 1543   4.277   1.982   2.555
   18Am     C1A 1544   4.049   2.008   2.458
   18Am     C1A 1545   4.139   1.786   2.489
   18Am     C1A 1546   4.244   1.937   2.320
   18Am      H1 1547   4.306   2.086   2.527
   18Am      H1 1548   4.372   1.924   2.549
   18Am      H1 1549   4.087   1.783   2.587
   18Am      H1 1550   4.063   1.750   2.417
   18Am      H1 1551   4.000   1.998   2.557
   18Am      H1 1552   3.976   1.965   2.387
   18Am      H1 1553   4.339   1.880   2.321
   18Am      H1 1554   4.274   2.042   2.299
   18Am      C2 1555   4.232   1.984   2.703
   18Am      C2 1556   4.062   2.159   2.427
   18Am      C2 1557   4.254   1.683   2.492
   18Am      C2 1558   4.160   1.887   2.200
   18Am      HC 1559   4.210   1.882   2.738
   18Am      HC 1560   4.142   2.048   2.716
   18Am      HC 1561   4.128   2.209   2.501
   18Am      HC 1562   4.103   2.175   2.325
   18Am      HC 1563   4.329   1.711   2.569
   18Am      HC 1564   4.304   1.677   2.393
   18Am      HC 1565   4.067   1.946   2.190
   18Am      HC 1566   4.134   1.780   2.212
   18Am      CS 1567   4.344   2.041   2.792
   18Am      CS 1568   3.924   2.227   2.434
   18Am      CS 1569   4.201   1.544   2.527
   18Am      CS 1570   4.240   1.901   2.070
   18Am      CT 1571   4.301   2.044   2.939
   18Am      CT 1572   3.935   2.376   2.403
   18Am      CT 1573   4.313   1.441   2.531
   18Am      CT 1574   4.159   1.852   1.950
   18Am      HC 1575   4.368   2.145   2.760
   18Am      HC 1576   4.435   1.979   2.782
   18Am      HC 1577   4.211   2.108   2.952
   18Am      HC 1578   4.384   2.086   3.000
   18Am      HC 1579   4.279   1.941   2.974
   18Am      HC 1580   3.856   2.180   2.359
   18Am      HC 1581   3.881   2.215   2.535
   18Am      HC 1582   3.976   2.392   2.301
   18Am      HC 1583   3.834   2.423   2.408
   18Am      HC 1584   4.001   2.426   2.477
   18Am      HC 1585   4.066   1.912   1.939
   18Am      HC 1586   4.220   1.864   1.857
   18Am      HC 1587   4.133   1.745   1.962
   18Am      HC 1588   4.267   2.008   2.054
   18Am      HC 1589   4.334   1.842   2.076
   18Am      HC 1590   4.272   1.341   2.556
   18Am      HC 1591   4.388   1.468   2.608
   18Am      HC 1592   4.363   1.434   2.432
   18Am      HC 1593   4.126   1.512   2.451
   18Am      HC 1594   4.151   1.546   2.627
   19Am      N4 1595   1.824   2.214   3.013
   19Am     C1A 1596   1.702   2.299   3.036
   19Am     C1A 1597   1.854   2.129   3.133
   19Am     C1A 1598   1.946   2.299   2.990
   19Am     C1A 1599   1.793   2.129   2.892
   19Am      H1 1600   1.612   2.235   3.049
   19Am      H1 1601   1.679   2.359   2.944
   19Am      H1 1602   1.969   2.359   3.081
   19Am      H1 1603   2.035   2.235   2.976
   19Am      H1 1604   1.879   2.194   3.220
   19Am      H1 1605   1.946   2.069   3.116
   19Am      H1 1606   1.768   2.193   2.805
   19Am      H1 1607   1.701   2.069   2.910
   19Am      C2 1608   1.708   2.398   3.155
   19Am      C2 1609   1.742   2.031   3.178
   19Am      C2 1610   1.940   2.397   2.870
   19Am      C2 1611   1.905   2.031   2.848
   19Am      HC 1612   1.791   2.470   3.142
   19Am      HC 1613   1.722   2.342   3.250
   19Am      HC 1614   1.650   2.087   3.205
   19Am      HC 1615   1.719   1.959   3.098
   19Am      HC 1616   1.857   2.469   2.882
   19Am      HC 1617   1.926   2.341   2.775
   19Am      HC 1618   1.928   1.959   2.929
   19Am      HC 1619   1.997   2.086   2.821
   19Am      CS 1620   1.577   2.477   3.166
   19Am      CS 1621   1.787   1.952   3.302
   19Am      CS 1622   2.071   2.477   2.859
   19Am      CS 1623   1.860   1.951   2.725
   19Am      CT 1624   1.581   2.575   3.283
   19Am      CT 1625   1.678   1.855   3.347
   19Am      CT 1626   2.067   2.573   2.741
   19Am      CT 1627   1.969   1.854   2.680
   19Am      HC 1628   1.492   2.408   3.180
   19Am      HC 1629   1.561   2.535   3.072
   19Am      HC 1630   1.595   2.520   3.379
   19Am      HC 1631   1.486   2.631   3.289
   19Am      HC 1632   1.664   2.647   3.271
   19Am      HC 1633   1.878   1.894   3.278
   19Am      HC 1634   1.809   2.022   3.385
   19Am      HC 1635   1.655   1.782   3.266
   19Am      HC 1636   1.713   1.799   3.436
   19Am      HC 1637   1.586   1.910   3.374
   19Am      HC 1638   1.992   1.781   2.761
   19Am      HC 1639   1.934   1.797   2.591
   19Am      HC 1640   2.061   1.909   2.653
   19Am      HC 1641   1.768   1.893   2.749
   19Am      HC 1642   1.837   2.020   2.641
   19Am      HC 1643   2.162   2.629   2.735
   19Am      HC 1644   1.984   2.646   2.753
   19Am      HC 1645   2.053   2.518   2.646
   19Am      HC 1646   2.156   2.407   2.845
   19Am      HC 1647   2.087   2.534   2.952
   20Am      N4 1648   1.111   2.717   1.506
   20Am     C1A 1649   1.066   2.655   1.636
   20Am     C1A 1650   0.993   2.747   1.417
   20Am     C1A 1651   1.199   2.622   1.429
   20Am     C1A 1652   1.185   2.843   1.542
   20Am      H1 1653   1.004   2.728   1.693
   20Am      H1 1654   1.154   2.637   1.702
   20Am      H1 1655   1.142   2.531   1.400
   20Am      H1 1656   1.228   2.668   1.332
   20Am      H1 1657   0.942   2.652   1.389
   20Am      H1 1658   1.028   2.789   1.320
   20Am      H1 1659   1.270   2.819   1.610
   20Am      H1 1660   1.120   2.910   1.602
   20Am      C2 1661   0.987   2.523   1.626
   20Am      C2 1662   0.887   2.843   1.474
   20Am      C2 1663   1.329   2.575   1.500
   20Am      C2 1664   1.242   2.925   1.424
   20Am      HC 1665   1.048   2.444   1.577
   20Am      HC 1666   0.893   2.538   1.569
   20Am      HC 1667   0.842   2.802   1.567
   20Am      HC 1668   0.931   2.942   1.496
   20Am      HC 1669   1.304   2.521   1.593
   20Am      HC 1670   1.394   2.662   1.523
   20Am      HC 1671   1.160   2.959   1.357
   20Am      HC 1672   1.315   2.865   1.366
   20Am      CS 1673   0.949   2.473   1.766
   20Am      CS 1674   0.773   2.864   1.373
   20Am      CS 1675   1.408   2.480   1.409
   20Am      CS 1676   1.314   3.050   1.475
   20Am      CT 1677   0.870   2.342   1.758
   20Am      CT 1678   0.667   2.959   1.428
   20Am      CT 1679   1.536   2.433   1.478
   20Am      CT 1680   1.371   3.133   1.360
   20Am      HC 1681   0.886   2.549   1.817
   20Am      HC 1682   1.041   2.455   1.826
   20Am      HC 1683   0.776   2.357   1.700
   20Am      HC 1684   0.844   2.308   1.860
   20Am      HC 1685   0.931   2.263   1.709
   20Am      HC 1686   0.814   2.907   1.279
   20Am      HC 1687   0.725   2.767   1.350
   20Am      HC 1688   0.712   3.059   1.450
   20Am      HC 1689   0.586   2.973   1.353
   20Am      HC 1690   0.622   2.918   1.521
   20Am      HC 1691   1.289   3.167   1.293
   20Am      HC 1692   1.423   3.223   1.400
   20Am      HC 1693   1.444   3.073   1.302
   20Am      HC 1694   1.244   3.114   1.533
   20Am      HC 1695   1.398   3.020   1.542
   20Am      HC 1696   1.591   2.364   1.410
   20Am      HC 1697   1.512   2.379   1.572
   20Am      HC 1698   1.601   2.520   1.501
   20Am      HC 1699   1.435   2.531   1.315
   20Am      HC 1700   1.346   2.391   1.385
   21Am      N4 1701   2.745   3.705   1.469
   21Am     C1A 1702   2.800   3.809   1.376
   21Am     C1A 1703   2.673   3.768   1.585
   21Am     C1A 1704   2.855   3.622   1.529
   21Am     C1A 1705   2.652   3.620   1.387
   21Am      H1 1706   2.717   3.867   1.330
   21Am      H1 1707   2.850   3.761   1.289
   21Am      H1 1708   2.921   3.685   1.592
   21Am      H1 1709   2.813   3.547   1.600
   21Am      H1 1710   2.744   3.828   1.647
   21Am      H1 1711   2.636   3.690   1.655
   21Am      H1 1712   2.706   3.576   1.300
   21Am      H1 1713   2.573   3.683   1.341
   21Am      C2 1714   2.900   3.910   1.437
   21Am      C2 1715   2.553   3.860   1.550
   21Am      C2 1716   2.946   3.545   1.429
   21Am      C2 1717   2.581   3.504   1.461
   21Am      HC 1718   2.989   3.858   1.477
   21Am      HC 1719   2.852   3.968   1.519
   21Am      HC 1720   2.586   3.945   1.487
   21Am      HC 1721   2.475   3.803   1.496
   21Am      HC 1722   2.997   3.616   1.361
   21Am      HC 1723   2.886   3.474   1.370
   21Am      HC 1724   2.518   3.543   1.544
   21Am      HC 1725   2.655   3.432   1.502
   21Am      CS 1726   2.948   4.010   1.331
   21Am      CS 1727   2.489   3.917   1.677
   21Am      CS 1728   3.053   3.465   1.504
   21Am      CS 1729   2.489   3.426   1.365
   21Am      CT 1730   3.046   4.111   1.389
   21Am      CT 1731   2.371   4.008   1.644
   21Am      CT 1732   3.143   3.389   1.407
   21Am      CT 1733   2.419   3.311   1.437
   21Am      HC 1734   2.860   4.066   1.290
   21Am      HC 1735   2.997   3.956   1.248
   21Am      HC 1736   2.999   4.168   1.471
   21Am      HC 1737   3.079   4.181   1.310
   21Am      HC 1738   3.136   4.058   1.429
   21Am      HC 1739   2.454   3.834   1.742
   21Am      HC 1740   2.565   3.976   1.733
   21Am      HC 1741   2.293   3.951   1.590
   21Am      HC 1742   2.327   4.048   1.738
   21Am      HC 1743   2.404   4.093   1.581
   21Am      HC 1744   2.356   3.350   1.520
   21Am      HC 1745   2.354   3.257   1.365
   21Am      HC 1746   2.493   3.240   1.478
   21Am      HC 1747   2.413   3.495   1.324
   21Am      HC 1748   2.550   3.385   1.282
   21Am      HC 1749   3.220   3.332   1.464
   21Am      HC 1750   3.195   3.460   1.339
   21Am      HC 1751   3.083   3.318   1.347
   21Am      HC 1752   3.005   3.392   1.573
   21Am      HC 1753   3.116   3.534   1.564
   22Am      N4 1754   4.097   0.284   1.509
   22Am     C1A 1755   4.089   0.412   1.431
   22Am     C1A 1756   3.959   0.233   1.544
   22Am     C1A 1757   4.169   0.304   1.640
   22Am     C1A 1758   4.170   0.185   1.422
   22Am      H1 1759   4.039   0.394   1.334
   22Am      H1 1760   4.192   0.446   1.403
   22Am      H1 1761   4.112   0.374   1.705
   22Am      H1 1762   4.171   0.209   1.698
   22Am      H1 1763   3.908   0.306   1.612
   22Am      H1 1764   3.967   0.141   1.605
   22Am      H1 1765   4.270   0.226   1.394
   22Am      H1 1766   4.118   0.174   1.324
   22Am      C2 1767   4.018   0.531   1.500
   22Am      C2 1768   3.865   0.204   1.426
   22Am      C2 1769   4.314   0.356   1.631
   22Am      C2 1770   4.191   0.043   1.480
   22Am      HC 1771   4.070   0.558   1.594
   22Am      HC 1772   3.912   0.505   1.522
   22Am      HC 1773   3.847   0.296   1.367
   22Am      HC 1774   3.907   0.126   1.360
   22Am      HC 1775   4.317   0.456   1.582
   22Am      HC 1776   4.378   0.285   1.575
   22Am      HC 1777   4.094  -0.005   1.502
   22Am      HC 1778   4.251   0.048   1.574
   22Am      CS 1779   4.018   0.654   1.409
   22Am      CS 1780   3.729   0.154   1.476
   22Am      CS 1781   4.375   0.372   1.771
   22Am      CS 1782   4.267  -0.045   1.381
   22Am      CT 1783   3.948   0.772   1.476
   22Am      CT 1784   3.634   0.124   1.360
   22Am      CT 1785   4.518   0.424   1.765
   22Am      CT 1786   4.288  -0.186   1.437
   22Am      HC 1787   3.966   0.631   1.314
   22Am      HC 1788   4.123   0.683   1.386
   22Am      HC 1789   3.842   0.747   1.498
   22Am      HC 1790   3.950   0.860   1.408
   22Am      HC 1791   4.000   0.800   1.570
   22Am      HC 1792   3.743   0.061   1.535
   22Am      HC 1793   3.682   0.231   1.542
   22Am      HC 1794   3.677   0.046   1.294
   22Am      HC 1795   3.537   0.088   1.400
   22Am      HC 1796   3.616   0.217   1.301
   22Am      HC 1797   4.190  -0.234   1.458
   22Am      HC 1798   4.343  -0.248   1.363
   22Am      HC 1799   4.348  -0.181   1.531
   22Am      HC 1800   4.209  -0.053   1.286
   22Am      HC 1801   4.366  -0.001   1.358
   22Am      HC 1802   4.559   0.434   1.867
   22Am      HC 1803   4.521   0.523   1.715
   22Am      HC 1804   4.582   0.353   1.708
   22Am      HC 1805   4.374   0.274   1.824
   22Am      HC 1806   4.314   0.444   1.831
   23Am      N4 1807   2.013  -0.012   2.718
   23Am     C1A 1808   2.014   0.098   2.615
   23Am     C1A 1809   2.140  -0.093   2.711
   23Am     C1A 1810   1.900  -0.108   2.694
   23Am     C1A 1811   1.999   0.056   2.852
   23Am      H1 1812   2.096   0.170   2.636
   23Am      H1 1813   1.921   0.159   2.623
   23Am      H1 1814   1.914  -0.160   2.597
   23Am      H1 1815   1.903  -0.190   2.769
   23Am      H1 1816   2.147  -0.146   2.614
   23Am      H1 1817   2.136  -0.176   2.786
   23Am      H1 1818   1.907   0.118   2.853
   23Am      H1 1819   2.082   0.129   2.866
   23Am      C2 1820   2.027   0.053   2.467
   23Am      C2 1821   2.272  -0.016   2.733
   23Am      C2 1822   1.757  -0.049   2.696
   23Am      C2 1823   1.996  -0.036   2.976
   23Am      HC 1824   1.942  -0.013   2.438
   23Am      HC 1825   2.122  -0.001   2.451
   23Am      HC 1826   2.285   0.062   2.655
   23Am      HC 1827   2.274   0.031   2.833
   23Am      HC 1828   1.746   0.028   2.616
   23Am      HC 1829   1.735  -0.003   2.795
   23Am      HC 1830   2.090  -0.094   2.983
   23Am      HC 1831   1.910  -0.106   2.971
   23Am      CS 1832   2.026   0.175   2.374
   23Am      CS 1833   2.392  -0.112   2.724
   23Am      CS 1834   1.653  -0.158   2.670
   23Am      CS 1835   1.982   0.047   3.104
   23Am      CT 1836   2.039   0.132   2.227
   23Am      CT 1837   2.524  -0.037   2.745
   23Am      CT 1838   1.511  -0.101   2.672
   23Am      CT 1839   1.979  -0.043   3.228
   23Am      HC 1840   2.111   0.242   2.399
   23Am      HC 1841   1.931   0.231   2.386
   23Am      HC 1842   2.135   0.078   2.211
   23Am      HC 1843   2.038   0.222   2.162
   23Am      HC 1844   1.954   0.067   2.199
   23Am      HC 1845   2.383  -0.191   2.801
   23Am      HC 1846   2.394  -0.160   2.624
   23Am      HC 1847   2.526   0.010   2.845
   23Am      HC 1848   2.609  -0.108   2.738
   23Am      HC 1849   2.537   0.041   2.667
   23Am      HC 1850   2.073  -0.101   3.236
   23Am      HC 1851   1.968   0.020   3.319
   23Am      HC 1852   1.893  -0.113   3.223
   23Am      HC 1853   2.068   0.117   3.113
   23Am      HC 1854   1.888   0.106   3.100
   23Am      HC 1855   1.438  -0.182   2.653
   23Am      HC 1856   1.500  -0.024   2.592
   23Am      HC 1857   1.489  -0.055   2.770
   23Am      HC 1858   1.660  -0.236   2.749
   23Am      HC 1859   1.671  -0.205   2.571
   24Am      N4 1860   3.561   0.389   1.993
   24Am     C1A 1861   3.675   0.411   2.090
   24Am     C1A 1862   3.582   0.262   1.913
   24Am     C1A 1863   3.553   0.501   1.893
   24Am     C1A 1864   3.436   0.380   2.077
   24Am      H1 1865   3.678   0.329   2.165
   24Am      H1 1866   3.657   0.502   2.150
   24Am      H1 1867   3.644   0.503   1.830
   24Am      H1 1868   3.470   0.481   1.821
   24Am      H1 1869   3.672   0.272   1.850
   24Am      H1 1870   3.499   0.250   1.841
   24Am      H1 1871   3.425   0.473   2.138
   24Am      H1 1872   3.446   0.299   2.153
   24Am      C2 1873   3.816   0.423   2.028
   24Am      C2 1874   3.594   0.131   1.995
   24Am      C2 1875   3.531   0.643   1.951
   24Am      C2 1876   3.304   0.357   2.000
   24Am      HC 1877   3.821   0.509   1.958
   24Am      HC 1878   3.843   0.330   1.973
   24Am      HC 1879   3.681   0.136   2.063
   24Am      HC 1880   3.502   0.113   2.053
   24Am      HC 1881   3.616   0.671   2.017
   24Am      HC 1882   3.436   0.648   2.008
   24Am      HC 1883   3.307   0.262   1.945
   24Am      HC 1884   3.285   0.440   1.930
   24Am      CS 1885   3.922   0.445   2.137
   24Am      CS 1886   3.614   0.011   1.901
   24Am      CS 1887   3.524   0.747   1.838
   24Am      CS 1888   3.185   0.351   2.098
   24Am      CT 1889   4.062   0.458   2.078
   24Am      CT 1890   3.626  -0.119   1.979
   24Am      CT 1891   3.504   0.887   1.893
   24Am      CT 1892   3.054   0.329   2.024
   24Am      HC 1893   3.920   0.360   2.208
   24Am      HC 1894   3.898   0.539   2.193
   24Am      HC 1895   4.089   0.365   2.023
   24Am      HC 1896   4.135   0.474   2.159
   24Am      HC 1897   4.067   0.544   2.008
   24Am      HC 1898   3.528   0.003   1.831
   24Am      HC 1899   3.707   0.026   1.841
   24Am      HC 1900   3.534  -0.138   2.038
   24Am      HC 1901   3.641  -0.204   1.908
   24Am      HC 1902   3.714  -0.115   2.047
   24Am      HC 1903   3.057   0.233   1.968
   24Am      HC 1904   2.970   0.325   2.097
   24Am      HC 1905   3.035   0.412   1.953
   24Am      HC 1906   3.201   0.268   2.170
   24Am      HC 1907   3.179   0.447   2.155
   24Am      HC 1908   3.499   0.960   1.809
   24Am      HC 1909   3.588   0.915   1.959
   24Am      HC 1910   3.409   0.893   1.950
   24Am      HC 1911   3.440   0.722   1.770
   24Am      HC 1912   3.619   0.744   1.779
   25Am      N4 1913   2.450   1.538   3.119
   25Am     C1A 1914   2.518   1.421   3.052
   25Am     C1A 1915   2.520   1.576   3.247
   25Am     C1A 1916   2.308   1.504   3.158
   25Am     C1A 1917   2.453   1.651   3.019
   25Am      H1 1918   2.621   1.449   3.021
   25Am      H1 1919   2.466   1.397   2.957
   25Am      H1 1920   2.308   1.423   3.234
   25Am      H1 1921   2.261   1.590   3.210
   25Am      H1 1922   2.514   1.493   3.320
   25Am      H1 1923   2.467   1.660   3.296
   25Am      H1 1924   2.403   1.620   2.925
   25Am      H1 1925   2.558   1.673   2.989
   25Am      C2 1926   2.527   1.291   3.135
   25Am      C2 1927   2.670   1.616   3.233
   25Am      C2 1928   2.214   1.461   3.043
   25Am      C2 1929   2.388   1.784   3.065
   25Am      HC 1930   2.426   1.254   3.161
   25Am      HC 1931   2.586   1.308   3.228
   25Am      HC 1932   2.729   1.532   3.192
   25Am      HC 1933   2.680   1.705   3.167
   25Am      HC 1934   2.253   1.369   2.993
   25Am      HC 1935   2.204   1.542   2.968
   25Am      HC 1936   2.440   1.824   3.154
   25Am      HC 1937   2.281   1.770   3.088
   25Am      CS 1938   2.598   1.181   3.055
   25Am      CS 1939   2.728   1.653   3.370
   25Am      CS 1940   2.074   1.429   3.097
   25Am      CS 1941   2.399   1.890   2.954
   25Am      CT 1942   2.609   1.052   3.135
   25Am      CT 1943   2.875   1.692   3.359
   25Am      CT 1944   1.980   1.386   2.985
   25Am      CT 1945   2.336   2.022   2.997
   25Am      HC 1946   2.701   1.215   3.028
   25Am      HC 1947   2.542   1.161   2.961
   25Am      HC 1948   2.667   1.069   3.228
   25Am      HC 1949   2.661   0.974   3.074
   25Am      HC 1950   2.508   1.014   3.161
   25Am      HC 1951   2.671   1.737   3.414
   25Am      HC 1952   2.720   1.565   3.439
   25Am      HC 1953   2.886   1.781   3.293
   25Am      HC 1954   2.914   1.718   3.460
   25Am      HC 1955   2.935   1.609   3.318
   25Am      HC 1956   2.388   2.062   3.086
   25Am      HC 1957   2.345   2.096   2.914
   25Am      HC 1958   2.228   2.008   3.020
   25Am      HC 1959   2.506   1.907   2.929
   25Am      HC 1960   2.347   1.853   2.862
   25Am      HC 1961   1.879   1.364   3.028
   25Am      HC 1962   2.018   1.295   2.935
   25Am      HC 1963   1.969   1.467   2.910
   25Am      HC 1964   2.032   1.519   3.147
   25Am      HC 1965   2.080   1.347   3.172
   26Am      N4 1966   1.986   0.729   1.498
   26Am     C1A 1967   1.881   0.661   1.415
   26Am     C1A 1968   2.022   0.646   1.619
   26Am     C1A 1969   1.936   0.861   1.552
   26Am     C1A 1970   2.106   0.749   1.408
   26Am      H1 1971   1.921   0.566   1.373
   26Am      H1 1972   1.859   0.722   1.325
   26Am      H1 1973   1.851   0.845   1.621
   26Am      H1 1974   2.014   0.908   1.616
   26Am      H1 1975   1.934   0.636   1.686
   26Am      H1 1976   2.097   0.699   1.681
   26Am      H1 1977   2.077   0.808   1.319
   26Am      H1 1978   2.139   0.651   1.367
   26Am      C2 1979   1.747   0.630   1.485
   26Am      C2 1980   2.077   0.504   1.590
   26Am      C2 1981   1.893   0.966   1.446
   26Am      C2 1982   2.229   0.818   1.472
   26Am      HC 1983   1.699   0.723   1.521
   26Am      HC 1984   1.763   0.562   1.571
   26Am      HC 1985   2.002   0.444   1.536
   26Am      HC 1986   2.170   0.510   1.531
   26Am      HC 1987   1.809   0.927   1.385
   26Am      HC 1988   1.977   0.992   1.380
   26Am      HC 1989   2.267   0.758   1.557
   26Am      HC 1990   2.203   0.919   1.507
   26Am      CS 1991   1.650   0.561   1.388
   26Am      CS 1992   2.109   0.431   1.722
   26Am      CS 1993   1.844   1.094   1.515
   26Am      CS 1994   2.342   0.831   1.369
   26Am      CT 1995   1.517   0.529   1.456
   26Am      CT 1996   2.163   0.291   1.695
   26Am      CT 1997   1.801   1.199   1.413
   26Am      CT 1998   2.465   0.898   1.429
   26Am      HC 1999   1.695   0.466   1.352
   26Am      HC 2000   1.631   0.627   1.301
   26Am      HC 2001   1.533   0.461   1.542
   26Am      HC 2002   1.449   0.480   1.384
   26Am      HC 2003   1.469   0.623   1.492
   26Am      HC 2004   2.185   0.489   1.779
   26Am      HC 2005   2.017   0.423   1.783
   26Am      HC 2006   2.257   0.296   1.636
   26Am      HC 2007   2.186   0.241   1.792
   26Am      HC 2008   2.088   0.230   1.640
   26Am      HC 2009   2.503   0.839   1.515
   26Am      HC 2010   2.545   0.906   1.353
   26Am      HC 2011   2.439   1.000   1.465
   26Am      HC 2012   2.371   0.730   1.332
   26Am      HC 2013   2.307   0.891   1.282
   26Am      HC 2014   1.766   1.290   1.465
   26Am      HC 2015   1.717   1.159   1.351
   26Am      HC 2016   1.885   1.225   1.346
   26Am      HC 2017   1.927   1.137   1.577
   26Am      HC 2018   1.758   1.071   1.582
   27Am      N4 2019   2.920   2.906   2.116
   27Am     C1A 2020   2.877   2.772   2.169
   27Am     C1A 2021   3.040   2.894   2.026
   27Am     C1A 2022   2.962   2.998   2.229
   27Am     C1A 2023   2.802   2.962   2.042
   27Am      H1 2024   2.844   2.707   2.085
   27Am      H1 2025   2.786   2.783   2.232
   27Am      H1 2026   3.051   2.957   2.280
   27Am      H1 2027   2.996   3.095   2.188
   27Am      H1 2028   3.127   2.855   2.084
   27Am      H1 2029   3.073   2.994   1.991
   27Am      H1 2030   2.714   2.968   2.109
   27Am      H1 2031   2.771   2.892   1.961
   27Am      C2 2032   2.982   2.693   2.250
   27Am      C2 2033   3.023   2.803   1.901
   27Am      C2 2034   2.854   3.027   2.336
   27Am      C2 2035   2.821   3.102   1.977
   27Am      HC 2036   3.012   2.750   2.340
   27Am      HC 2037   3.072   2.672   2.188
   27Am      HC 2038   2.999   2.700   1.931
   27Am      HC 2039   2.943   2.843   1.836
   27Am      HC 2040   2.823   2.933   2.386
   27Am      HC 2041   2.766   3.076   2.291
   27Am      HC 2042   2.903   3.099   1.903
   27Am      HC 2043   2.844   3.178   2.055
   27Am      CS 2044   2.924   2.558   2.297
   27Am      CS 2045   3.153   2.800   1.819
   27Am      CS 2046   2.911   3.121   2.444
   27Am      CS 2047   2.693   3.146   1.905
   27Am      CT 2048   3.027   2.479   2.378
   27Am      CT 2049   3.138   2.712   1.696
   27Am      CT 2050   2.806   3.151   2.551
   27Am      CT 2051   2.710   3.283   1.841
   27Am      HC 2052   2.894   2.498   2.209
   27Am      HC 2053   2.835   2.576   2.360
   27Am      HC 2054   3.116   2.458   2.316
   27Am      HC 2055   2.982   2.383   2.410
   27Am      HC 2056   3.057   2.536   2.468
   27Am      HC 2057   3.179   2.903   1.787
   27Am      HC 2058   3.235   2.760   1.882
   27Am      HC 2059   3.057   2.751   1.630
   27Am      HC 2060   3.233   2.711   1.638
   27Am      HC 2061   3.113   2.608   1.725
   27Am      HC 2062   2.793   3.281   1.766
   27Am      HC 2063   2.616   3.312   1.789
   27Am      HC 2064   2.734   3.359   1.918
   27Am      HC 2065   2.668   3.072   1.826
   27Am      HC 2066   2.609   3.151   1.977
   27Am      HC 2067   2.849   3.219   2.628
   27Am      HC 2068   2.774   3.057   2.601
   27Am      HC 2069   2.717   3.200   2.506
   27Am      HC 2070   2.942   3.217   2.397
   27Am      HC 2071   2.999   3.074   2.493
   28Am      N4 2072   1.100   1.895   2.121
   28Am     C1A 2073   1.007   1.977   2.207
   28Am     C1A 2074   1.035   1.766   2.078
   28Am     C1A 2075   1.224   1.857   2.197
   28Am     C1A 2076   1.133   1.982   2.002
   28Am      H1 2077   0.918   2.007   2.149
   28Am      H1 2078   1.055   2.073   2.235
   28Am      H1 2079   1.198   1.790   2.282
   28Am      H1 2080   1.290   1.794   2.133
   28Am      H1 2081   1.014   1.703   2.167
   28Am      H1 2082   1.106   1.706   2.017
   28Am      H1 2083   1.178   2.078   2.036
   28Am      H1 2084   1.040   2.012   1.949
   28Am      C2 2085   0.958   1.909   2.338
   28Am      C2 2086   0.904   1.779   1.997
   28Am      C2 2087   1.310   1.973   2.252
   28Am      C2 2088   1.229   1.920   1.897
   28Am      HC 2089   1.043   1.885   2.404
   28Am      HC 2090   0.901   1.817   2.315
   28Am      HC 2091   0.826   1.831   2.057
   28Am      HC 2092   0.921   1.835   1.903
   28Am      HC 2093   1.251   2.034   2.324
   28Am      HC 2094   1.346   2.038   2.170
   28Am      HC 2095   1.185   1.828   1.854
   28Am      HC 2096   1.327   1.896   1.942
   28Am      CS 2097   0.864   2.003   2.415
   28Am      CS 2098   0.849   1.640   1.960
   28Am      CS 2099   1.433   1.919   2.327
   28Am      CS 2100   1.254   2.019   1.782
   28Am      CT 2101   0.815   1.939   2.544
   28Am      CT 2102   0.720   1.651   1.881
   28Am      CT 2103   1.518   2.032   2.382
   28Am      CT 2104   1.347   1.959   1.677
   28Am      HC 2105   0.777   2.029   2.352
   28Am      HC 2106   0.919   2.097   2.441
   28Am      HC 2107   0.758   1.846   2.521
   28Am      HC 2108   0.748   2.009   2.597
   28Am      HC 2109   0.900   1.914   2.610
   28Am      HC 2110   0.924   1.586   1.899
   28Am      HC 2111   0.830   1.582   2.053
   28Am      HC 2112   0.737   1.707   1.786
   28Am      HC 2113   0.683   1.549   1.855
   28Am      HC 2114   0.642   1.703   1.940
   28Am      HC 2115   1.303   1.867   1.634
   28Am      HC 2116   1.363   2.033   1.596
   28Am      HC 2117   1.446   1.935   1.723
   28Am      HC 2118   1.157   2.044   1.733
   28Am      HC 2119   1.299   2.112   1.822
   28Am      HC 2120   1.607   1.990   2.435
   28Am      HC 2121   1.460   2.093   2.454
   28Am      HC 2122   1.555   2.098   2.300
   28Am      HC 2123   1.495   1.858   2.257
   28Am      HC 2124   1.400   1.854   2.411
   29Am      N4 2125   0.979   3.536   2.310
   29Am     C1A 2126   0.970   3.675   2.368
   29Am     C1A 2127   0.842   3.476   2.291
   29Am     C1A 2128   1.053   3.443   2.402
   29Am     C1A 2129   1.050   3.550   2.178
   29Am      H1 2130   0.918   3.743   2.297
   29Am      H1 2131   1.072   3.719   2.378
   29Am      H1 2132   0.998   3.431   2.497
   29Am      H1 2133   1.056   3.341   2.359
   29Am      H1 2134   0.792   3.464   2.390
   29Am      H1 2135   0.850   3.373   2.251
   29Am      H1 2136   1.150   3.598   2.193
   29Am      H1 2137   0.996   3.622   2.112
   29Am      C2 2138   0.900   3.687   2.506
   29Am      C2 2139   0.745   3.554   2.199
   29Am      C2 2140   1.199   3.483   2.437
   29Am      C2 2141   1.072   3.420   2.097
   29Am      HC 2142   0.954   3.628   2.582
   29Am      HC 2143   0.795   3.653   2.499
   29Am      HC 2144   0.726   3.656   2.240
   29Am      HC 2145   0.786   3.562   2.097
   29Am      HC 2146   1.201   3.581   2.488
   29Am      HC 2147   1.261   3.488   2.345
   29Am      HC 2148   0.975   3.373   2.072
   29Am      HC 2149   1.133   3.348   2.155
   29Am      CS 2150   0.899   3.834   2.552
   29Am      CS 2151   0.610   3.482   2.190
   29Am      CS 2152   1.262   3.379   2.531
   29Am      CS 2153   1.145   3.450   1.965
   29Am      CT 2154   0.831   3.848   2.688
   29Am      CT 2155   0.513   3.558   2.099
   29Am      CT 2156   1.405   3.417   2.567
   29Am      CT 2157   1.167   3.322   1.884
   29Am      HC 2158   0.845   3.896   2.478
   29Am      HC 2159   1.003   3.871   2.561
   29Am      HC 2160   0.725   3.813   2.682
   29Am      HC 2161   0.831   3.954   2.719
   29Am      HC 2162   0.884   3.788   2.765
   29Am      HC 2163   0.625   3.380   2.148
   29Am      HC 2164   0.565   3.473   2.291
   29Am      HC 2165   0.554   3.566   1.997
   29Am      HC 2166   0.416   3.503   2.095
   29Am      HC 2167   0.494   3.659   2.139
   29Am      HC 2168   1.070   3.275   1.859
   29Am      HC 2169   1.221   3.347   1.790
   29Am      HC 2170   1.229   3.250   1.942
   29Am      HC 2171   1.086   3.521   1.905
   29Am      HC 2172   1.244   3.496   1.987
   29Am      HC 2173   1.448   3.340   2.635
   29Am      HC 2174   1.408   3.516   2.618
   29Am      HC 2175   1.468   3.422   2.476
   29Am      HC 2176   1.262   3.280   2.482
   29Am      HC 2177   1.202   3.373   2.625
   30Am      N4 2178   3.458   3.109   2.215
   30Am     C1A 2179   3.384   2.997   2.282
   30Am     C1A 2180   3.592   3.062   2.163
   30Am     C1A 2181   3.488   3.220   2.312
   30Am     C1A 2182   3.370   3.157   2.102
   30Am      H1 2183   3.360   2.917   2.208
   30Am      H1 2184   3.284   3.032   2.316
   30Am      H1 2185   3.556   3.184   2.392
   30Am      H1 2186   3.546   3.301   2.262
   30Am      H1 2187   3.657   3.030   2.247
   30Am      H1 2188   3.647   3.147   2.117
   30Am      H1 2189   3.271   3.188   2.142
   30Am      H1 2190   3.347   3.073   2.034
   30Am      C2 2191   3.454   2.929   2.402
   30Am      C2 2192   3.589   2.947   2.059
   30Am      C2 2193   3.365   3.286   2.381
   30Am      C2 2194   3.425   3.274   2.017
   30Am      HC 2195   3.473   3.003   2.483
   30Am      HC 2196   3.551   2.885   2.371
   30Am      HC 2197   3.542   2.857   2.104
   30Am      HC 2198   3.532   2.977   1.969
   30Am      HC 2199   3.309   3.211   2.439
   30Am      HC 2200   3.299   3.332   2.305
   30Am      HC 2201   3.520   3.245   1.968
   30Am      HC 2202   3.442   3.364   2.080
   30Am      CS 2203   3.367   2.817   2.460
   30Am      CS 2204   3.731   2.910   2.016
   30Am      CS 2205   3.411   3.397   2.477
   30Am      CS 2206   3.325   3.312   1.907
   30Am      CT 2207   3.435   2.750   2.579
   30Am      CT 2208   3.730   2.796   1.914
   30Am      CT 2209   3.291   3.463   2.545
   30Am      CT 2210   3.378   3.427   1.822
   30Am      HC 2211   3.348   2.741   2.382
   30Am      HC 2212   3.270   2.859   2.493
   30Am      HC 2213   3.532   2.705   2.548
   30Am      HC 2214   3.369   2.669   2.618
   30Am      HC 2215   3.453   2.824   2.660
   30Am      HC 2216   3.780   2.999   1.970
   30Am      HC 2217   3.790   2.878   2.104
   30Am      HC 2218   3.673   2.826   1.823
   30Am      HC 2219   3.834   2.772   1.884
   30Am      HC 2220   3.683   2.706   1.958
   30Am      HC 2221   3.473   3.398   1.773
   30Am      HC 2222   3.303   3.453   1.743
   30Am      HC 2223   3.395   3.517   1.885
   30Am      HC 2224   3.307   3.224   1.841
   30Am      HC 2225   3.229   3.343   1.953
   30Am      HC 2226   3.327   3.543   2.614
   30Am      HC 2227   3.234   3.388   2.604
   30Am      HC 2228   3.224   3.509   2.469
   30Am      HC 2229   3.467   3.475   2.420
   30Am      HC 2230   3.477   3.354   2.555
   31Am      N4 2231   3.063   0.065   2.824
   31Am     C1A 2232   3.197   0.065   2.894
   31Am     C1A 2233   2.953   0.023   2.918
   31Am     C1A 2234   3.061  -0.034   2.711
   31Am     C1A 2235   3.042   0.206   2.775
   31Am      H1 2236   3.197   0.141   2.976
   31Am      H1 2237   3.276   0.100   2.825
   31Am      H1 2238   3.074  -0.137   2.749
   31Am      H1 2239   2.961  -0.035   2.662
   31Am      H1 2240   2.968  -0.082   2.951
   31Am      H1 2241   2.856   0.021   2.864
   31Am      H1 2242   3.125   0.236   2.708
   31Am      H1 2243   3.047   0.278   2.859
   31Am      C2 2244   3.242  -0.070   2.955
   31Am      C2 2245   2.934   0.110   3.045
   31Am      C2 2246   3.167  -0.012   2.599
   31Am      C2 2247   2.909   0.232   2.698
   31Am      HC 2248   3.252  -0.147   2.876
   31Am      HC 2249   3.170  -0.104   3.032
   31Am      HC 2250   3.025   0.109   3.107
   31Am      HC 2251   2.909   0.215   3.017
   31Am      HC 2252   3.269  -0.019   2.641
   31Am      HC 2253   3.153   0.087   2.551
   31Am      HC 2254   2.822   0.212   2.763
   31Am      HC 2255   2.904   0.169   2.608
   31Am      CS 2256   3.379  -0.054   3.023
   31Am      CS 2257   2.818   0.056   3.130
   31Am      CS 2258   3.153  -0.119   2.491
   31Am      CS 2259   2.901   0.379   2.654
   31Am      CT 2260   3.426  -0.187   3.083
   31Am      CT 2261   2.798   0.140   3.256
   31Am      CT 2262   3.257  -0.100   2.380
   31Am      CT 2263   2.772   0.407   2.579
   31Am      HC 2264   3.373   0.022   3.103
   31Am      HC 2265   3.454  -0.021   2.948
   31Am      HC 2266   3.354  -0.222   3.160
   31Am      HC 2267   3.525  -0.173   3.131
   31Am      HC 2268   3.435  -0.264   3.004
   31Am      HC 2269   2.724   0.057   3.071
   31Am      HC 2270   2.840  -0.049   3.161
   31Am      HC 2271   2.773   0.245   3.228
   31Am      HC 2272   2.714   0.099   3.315
   31Am      HC 2273   2.890   0.140   3.318
   31Am      HC 2274   2.684   0.386   2.644
   31Am      HC 2275   2.769   0.514   2.548
   31Am      HC 2276   2.765   0.344   2.488
   31Am      HC 2277   2.906   0.445   2.743
   31Am      HC 2278   2.987   0.403   2.587
   31Am      HC 2279   3.244  -0.179   2.303
   31Am      HC 2280   3.359  -0.106   2.422
   31Am      HC 2281   3.243  -0.001   2.332
   31Am      HC 2282   3.052  -0.115   2.446
   31Am      HC 2283   3.168  -0.220   2.536
   32Am      N4 2284   1.389   1.421   2.662
   32Am     C1A 2285   1.284   1.526   2.687
   32Am     C1A 2286   1.352   1.334   2.545
   32Am     C1A 2287   1.403   1.329   2.780
   32Am     C1A 2288   1.518   1.496   2.636
   32Am      H1 2289   1.278   1.595   2.601
   32Am      H1 2290   1.315   1.592   2.772
   32Am      H1 2291   1.309   1.272   2.796
   32Am      H1 2292   1.479   1.250   2.759
   32Am      H1 2293   1.259   1.278   2.567
   32Am      H1 2294   1.429   1.255   2.530
   32Am      H1 2295   1.542   1.562   2.722
   32Am      H1 2296   1.505   1.566   2.550
   32Am      C2 2297   1.141   1.475   2.717
   32Am      C2 2298   1.332   1.406   2.409
   32Am      C2 2299   1.442   1.395   2.915
   32Am      C2 2300   1.643   1.409   2.606
   32Am      HC 2301   1.141   1.412   2.809
   32Am      HC 2302   1.103   1.416   2.632
   32Am      HC 2303   1.250   1.481   2.417
   32Am      HC 2304   1.425   1.458   2.378
   32Am      HC 2305   1.365   1.468   2.945
   32Am      HC 2306   1.540   1.446   2.907
   32Am      HC 2307   1.627   1.347   2.516
   32Am      HC 2308   1.665   1.343   2.693
   32Am      CS 2309   1.046   1.592   2.741
   32Am      CS 2310   1.295   1.306   2.300
   32Am      CS 2311   1.452   1.289   3.026
   32Am      CS 2312   1.765   1.498   2.582
   32Am      CT 2313   0.904   1.543   2.771
   32Am      CT 2314   1.274   1.375   2.165
   32Am      CT 2315   1.490   1.352   3.159
   32Am      CT 2316   1.890   1.414   2.553
   32Am      HC 2317   1.043   1.657   2.650
   32Am      HC 2318   1.081   1.653   2.827
   32Am      HC 2319   0.865   1.484   2.685
   32Am      HC 2320   0.837   1.630   2.787
   32Am      HC 2321   0.904   1.480   2.862
   32Am      HC 2322   1.375   1.230   2.289
   32Am      HC 2323   1.201   1.253   2.327
   32Am      HC 2324   1.368   1.427   2.134
   32Am      HC 2325   1.247   1.300   2.088
   32Am      HC 2326   1.192   1.450   2.172
   32Am      HC 2327   1.874   1.352   2.462
   32Am      HC 2328   1.977   1.481   2.536
   32Am      HC 2329   1.912   1.347   2.639
   32Am      HC 2330   1.746   1.565   2.495
   32Am      HC 2331   1.785   1.560   2.672
   32Am      HC 2332   1.496   1.274   3.237
   32Am      HC 2333   1.413   1.426   3.190
   32Am      HC 2334   1.588   1.403   3.152
   32Am      HC 2335   1.530   1.214   2.999
   32Am      HC 2336   1.354   1.237   3.037
   33Am      N4 2337   1.249   0.412   3.056
   33Am     C1A 2338   1.100   0.432   3.046
   33Am     C1A 2339   1.282   0.282   3.125
   33Am     C1A 2340   1.314   0.520   3.138
   33Am     C1A 2341   1.301   0.412   2.914
   33Am      H1 2342   1.055   0.353   2.983
   33Am      H1 2343   1.078   0.527   2.992
   33Am      H1 2344   1.277   0.516   3.243
   33Am      H1 2345   1.423   0.502   3.147
   33Am      H1 2346   1.246   0.284   3.230
   33Am      H1 2347   1.392   0.270   3.134
   33Am      H1 2348   1.273   0.507   2.864
   33Am      H1 2349   1.250   0.334   2.854
   33Am      C2 2350   1.023   0.435   3.180
   33Am      C2 2351   1.226   0.153   3.059
   33Am      C2 2352   1.295   0.665   3.087
   33Am      C2 2353   1.454   0.393   2.897
   33Am      HC 2354   1.059   0.518   3.244
   33Am      HC 2355   1.035   0.339   3.234
   33Am      HC 2356   1.115   0.156   3.055
   33Am      HC 2357   1.266   0.141   2.956
   33Am      HC 2358   1.187   0.692   3.085
   33Am      HC 2359   1.338   0.677   2.986
   33Am      HC 2360   1.485   0.295   2.938
   33Am      HC 2361   1.509   0.474   2.948
   33Am      CS 2362   0.873   0.457   3.155
   33Am      CS 2363   1.267   0.029   3.140
   33Am      CS 2364   1.366   0.765   3.181
   33Am      CS 2365   1.492   0.396   2.748
   33Am      CT 2366   0.795   0.460   3.286
   33Am      CT 2367   1.213  -0.099   3.076
   33Am      CT 2368   1.348   0.908   3.132
   33Am      CT 2369   1.642   0.376   2.729
   33Am      HC 2370   0.833   0.374   3.092
   33Am      HC 2371   0.857   0.553   3.102
   33Am      HC 2372   0.806   0.364   3.341
   33Am      HC 2373   0.687   0.476   3.265
   33Am      HC 2374   0.831   0.544   3.350
   33Am      HC 2375   1.378   0.022   3.144
   33Am      HC 2376   1.227   0.037   3.243
   33Am      HC 2377   1.253  -0.111   2.973
   33Am      HC 2378   1.244  -0.186   3.137
   33Am      HC 2379   1.102  -0.096   3.072
   33Am      HC 2380   1.674   0.278   2.770
   33Am      HC 2381   1.666   0.379   2.621
   33Am      HC 2382   1.698   0.457   2.780
   33Am      HC 2383   1.438   0.315   2.694
   33Am      HC 2384   1.462   0.493   2.704
   33Am      HC 2385   1.400   0.978   3.201
   33Am      HC 2386   1.240   0.935   3.130
   33Am      HC 2387   1.391   0.920   3.030
   33Am      HC 2388   1.474   0.741   3.184
   33Am      HC 2389   1.324   0.756   3.283
   34Am      N4 2390   3.881   1.575   3.151
   34Am     C1A 2391   3.752   1.594   3.077
   34Am     C1A 2392   3.878   1.449   3.234
   34Am     C1A 2393   3.905   1.688   3.248
   34Am     C1A 2394   3.990   1.569   3.047
   34Am      H1 2395   3.737   1.511   3.004
   34Am      H1 2396   3.757   1.685   3.014
   34Am      H1 2397   3.827   1.689   3.326
   34Am      H1 2398   4.000   1.671   3.304
   34Am      H1 2399   3.800   1.457   3.313
   34Am      H1 2400   3.973   1.439   3.291
   34Am      H1 2401   3.988   1.661   2.984
   34Am      H1 2402   3.968   1.487   2.975
   34Am      C2 2403   3.623   1.604   3.163
   34Am      C2 2404   3.855   1.317   3.157
   34Am      C2 2405   3.912   1.831   3.186
   34Am      C2 2406   4.134   1.549   3.099
   34Am      HC 2407   3.629   1.690   3.232
   34Am      HC 2408   3.609   1.511   3.222
   34Am      HC 2409   3.757   1.319   3.106
   34Am      HC 2410   3.935   1.300   3.083
   34Am      HC 2411   3.817   1.856   3.136
   34Am      HC 2412   3.996   1.837   3.113
   34Am      HC 2413   4.143   1.454   3.154
   34Am      HC 2414   4.163   1.633   3.164
   34Am      CS 2415   3.500   1.623   3.074
   34Am      CS 2416   3.855   1.198   3.254
   34Am      CS 2417   3.937   1.935   3.296
   34Am      CS 2418   4.233   1.545   2.981
   34Am      CT 2419   3.372   1.633   3.157
   34Am      CT 2420   3.831   1.066   3.180
   34Am      CT 2421   3.945   2.076   3.237
   34Am      CT 2422   4.376   1.526   3.031
   34Am      HC 2423   3.490   1.537   3.004
   34Am      HC 2424   3.511   1.716   3.014
   34Am      HC 2425   3.358   1.540   3.217
   34Am      HC 2426   3.285   1.646   3.090
   34Am      HC 2427   3.378   1.719   3.227
   34Am      HC 2428   3.952   1.192   3.307
   34Am      HC 2429   3.774   1.211   3.329
   34Am      HC 2430   3.912   1.049   3.105
   34Am      HC 2431   3.832   0.982   3.253
   34Am      HC 2432   3.733   1.068   3.128
   34Am      HC 2433   4.385   1.430   3.087
   34Am      HC 2434   4.445   1.523   2.944
   34Am      HC 2435   4.406   1.610   3.097
   34Am      HC 2436   4.207   1.461   2.914
   34Am      HC 2437   4.227   1.640   2.924
   34Am      HC 2438   3.963   2.149   3.319
   34Am      HC 2439   3.849   2.102   3.187
   34Am      HC 2440   4.028   2.083   3.164
   34Am      HC 2441   4.033   1.913   3.348
   34Am      HC 2442   3.855   1.932   3.370
   35Am      N4 2443   3.280   3.700   3.051
   35Am     C1A 2444   3.321   3.573   3.122
   35Am     C1A 2445   3.161   3.676   2.962
   35Am     C1A 2446   3.391   3.749   2.961
   35Am     C1A 2447   3.249   3.800   3.159
   35Am      H1 2448   3.240   3.540   3.191
   35Am      H1 2449   3.407   3.593   3.190
   35Am      H1 2450   3.410   3.676   2.880
   35Am      H1 2451   3.357   3.841   2.907
   35Am      H1 2452   3.187   3.604   2.882
   35Am      H1 2453   3.134   3.769   2.908
   35Am      H1 2454   3.337   3.814   3.225
   35Am      H1 2455   3.170   3.760   3.226
   35Am      C2 2456   3.359   3.453   3.032
   35Am      C2 2457   3.033   3.624   3.032
   35Am      C2 2458   3.526   3.781   3.029
   35Am      C2 2459   3.203   3.940   3.111
   35Am      HC 2460   3.446   3.478   2.968
   35Am      HC 2461   3.274   3.423   2.969
   35Am      HC 2462   3.052   3.526   3.080
   35Am      HC 2463   2.998   3.696   3.108
   35Am      HC 2464   3.568   3.691   3.078
   35Am      HC 2465   3.513   3.861   3.105
   35Am      HC 2466   3.110   3.933   3.051
   35Am      HC 2467   3.283   3.988   3.050
   35Am      CS 2468   3.399   3.332   3.118
   35Am      CS 2469   2.920   3.604   2.930
   35Am      CS 2470   3.628   3.831   2.926
   35Am      CS 2471   3.175   4.031   3.231
   35Am      CT 2472   3.437   3.213   3.031
   35Am      CT 2473   2.793   3.553   2.997
   35Am      CT 2474   3.762   3.863   2.991
   35Am      CT 2475   3.130   4.170   3.186
   35Am      HC 2476   3.314   3.303   3.183
   35Am      HC 2477   3.486   3.358   3.182
   35Am      HC 2478   3.351   3.182   2.967
   35Am      HC 2479   3.465   3.127   3.095
   35Am      HC 2480   3.523   3.238   2.966
   35Am      HC 2481   2.898   3.701   2.880
   35Am      HC 2482   2.952   3.531   2.852
   35Am      HC 2483   2.757   3.625   3.073
   35Am      HC 2484   2.713   3.540   2.920
   35Am      HC 2485   2.812   3.455   3.046
   35Am      HC 2486   3.037   4.163   3.126
   35Am      HC 2487   3.110   4.234   3.275
   35Am      HC 2488   3.209   4.218   3.125
   35Am      HC 2489   3.095   3.987   3.294
   35Am      HC 2490   3.267   4.042   3.293
   35Am      HC 2491   3.833   3.898   2.914
   35Am      HC 2492   3.804   3.772   3.040
   35Am      HC 2493   3.750   3.943   3.068
   35Am      HC 2494   3.589   3.923   2.876
   35Am      HC 2495   3.644   3.752   2.848
   36Am      N4 2496   0.467   3.151   3.127
   36Am     C1A 2497   0.329   3.135   3.066
   36Am     C1A 2498   0.495   3.041   3.226
   36Am     C1A 2499   0.478   3.280   3.204
   36Am     C1A 2500   0.564   3.148   3.012
   36Am      H1 2501   0.324   3.042   3.007
   36Am      H1 2502   0.312   3.216   2.991
   36Am      H1 2503   0.408   3.279   3.290
   36Am      H1 2504   0.578   3.288   3.250
   36Am      H1 2505   0.425   3.047   3.311
   36Am      H1 2506   0.595   3.056   3.272
   36Am      H1 2507   0.539   3.227   2.939
   36Am      H1 2508   0.552   3.053   2.954
   36Am      C2 2509   0.210   3.136   3.165
   36Am      C2 2510   0.490   2.896   3.170
   36Am      C2 2511   0.452   3.410   3.124
   36Am      C2 2512   0.714   3.161   3.048
   36Am      HC 2513   0.206   3.232   3.220
   36Am      HC 2514   0.219   3.052   3.237
   36Am      HC 2515   0.389   2.873   3.131
   36Am      HC 2516   0.565   2.882   3.090
   36Am      HC 2517   0.350   3.411   3.082
   36Am      HC 2518   0.526   3.420   3.041
   36Am      HC 2519   0.746   3.079   3.115
   36Am      HC 2520   0.733   3.259   3.099
   36Am      CS 2521   0.078   3.120   3.089
   36Am      CS 2522   0.521   2.795   3.281
   36Am      CS 2523   0.467   3.533   3.214
   36Am      CS 2524   0.801   3.156   2.922
   36Am      CT 2525  -0.041   3.120   3.185
   36Am      CT 2526   0.516   2.652   3.229
   36Am      CT 2527   0.442   3.662   3.137
   36Am      CT 2528   0.949   3.170   2.956
   36Am      HC 2529   0.078   3.023   3.033
   36Am      HC 2530   0.065   3.203   3.017
   36Am      HC 2531  -0.032   3.036   3.258
   36Am      HC 2532  -0.135   3.108   3.128
   36Am      HC 2533  -0.045   3.216   3.241
   36Am      HC 2534   0.622   2.814   3.323
   36Am      HC 2535   0.446   2.805   3.363
   36Am      HC 2536   0.591   2.638   3.148
   36Am      HC 2537   0.539   2.581   3.311
   36Am      HC 2538   0.415   2.628   3.189
   36Am      HC 2539   0.981   3.087   3.023
   36Am      HC 2540   1.009   3.166   2.863
   36Am      HC 2541   0.968   3.267   3.007
   36Am      HC 2542   0.785   3.059   2.870
   36Am      HC 2543   0.772   3.239   2.853
   36Am      HC 2544   0.454   3.749   3.205
   36Am      HC 2545   0.340   3.663   3.095
   36Am      HC 2546   0.516   3.672   3.054
   36Am      HC 2547   0.570   3.536   3.257
   36Am      HC 2548   0.394   3.527   3.298
   37Am      N4 2549   1.128   0.377   2.370
   37Am     C1A 2550   0.981   0.381   2.402
   37Am     C1A 2551   1.188   0.243   2.404
   37Am     C1A 2552   1.204   0.479   2.451
   37Am     C1A 2553   1.139   0.406   2.222
   37Am      H1 2554   0.926   0.307   2.339
   37Am      H1 2555   0.937   0.479   2.374
   37Am      H1 2556   1.197   0.454   2.559
   37Am      H1 2557   1.312   0.473   2.428
   37Am      H1 2558   1.182   0.225   2.513
   37Am      H1 2559   1.297   0.244   2.382
   37Am      H1 2560   1.091   0.504   2.199
   37Am      H1 2561   1.080   0.332   2.164
   37Am      C2 2562   0.942   0.354   2.550
   37Am      C2 2563   1.127   0.121   2.332
   37Am      C2 2564   1.160   0.627   2.434
   37Am      C2 2565   1.282   0.408   2.163
   37Am      HC 2566   0.988   0.430   2.616
   37Am      HC 2567   0.976   0.253   2.581
   37Am      HC 2568   1.019   0.111   2.357
   37Am      HC 2569   1.138   0.130   2.222
   37Am      HC 2570   1.054   0.640   2.464
   37Am      HC 2571   1.173   0.659   2.329
   37Am      HC 2572   1.331   0.310   2.177
   37Am      HC 2573   1.343   0.487   2.212
   37Am      CS 2574   0.790   0.360   2.568
   37Am      CS 2575   1.198  -0.008   2.376
   37Am      CS 2576   1.246   0.719   2.522
   37Am      CS 2577   1.278   0.439   2.013
   37Am      CT 2578   0.751   0.334   2.713
   37Am      CT 2579   1.138  -0.130   2.306
   37Am      CT 2580   1.204   0.865   2.507
   37Am      CT 2581   1.418   0.442   1.953
   37Am      HC 2582   0.741   0.284   2.503
   37Am      HC 2583   0.753   0.461   2.539
   37Am      HC 2584   0.784   0.233   2.744
   37Am      HC 2585   0.640   0.339   2.723
   37Am      HC 2586   0.796   0.410   2.780
   37Am      HC 2587   1.306  -0.002   2.351
   37Am      HC 2588   1.187  -0.021   2.486
   37Am      HC 2589   1.150  -0.121   2.196
   37Am      HC 2590   1.192  -0.222   2.340
   37Am      HC 2591   1.031  -0.141   2.331
   37Am      HC 2592   1.468   0.343   1.966
   37Am      HC 2593   1.412   0.464   1.844
   37Am      HC 2594   1.480   0.520   2.002
   37Am      HC 2595   1.218   0.361   1.961
   37Am      HC 2596   1.230   0.538   1.996
   37Am      HC 2597   1.268   0.929   2.571
   37Am      HC 2598   1.098   0.878   2.536
   37Am      HC 2599   1.217   0.898   2.401
   37Am      HC 2600   1.353   0.709   2.494
   37Am      HC 2601   1.234   0.690   2.629
   38Am      N4 2602   0.610   2.830   2.121
   38Am     C1A 2603   0.643   2.906   2.247
   38Am     C1A 2604   0.649   2.685   2.133
   38Am     C1A 2605   0.686   2.884   2.003
   38Am     C1A 2606   0.461   2.845   2.101
   38Am      H1 2607   0.584   2.867   2.332
   38Am      H1 2608   0.611   3.012   2.237
   38Am      H1 2609   0.795   2.869   2.018
   38Am      H1 2610   0.663   2.825   1.912
   38Am      H1 2611   0.759   2.676   2.145
   38Am      H1 2612   0.626   2.631   2.039
   38Am      H1 2613   0.434   2.953   2.096
   38Am      H1 2614   0.407   2.808   2.191
   38Am      C2 2615   0.792   2.906   2.289
   38Am      C2 2616   0.583   2.606   2.249
   38Am      C2 2617   0.663   3.034   1.969
   38Am      C2 2618   0.401   2.775   1.977
   38Am      HC 2619   0.855   2.952   2.211
   38Am      HC 2620   0.827   2.803   2.309
   38Am      HC 2621   0.609   2.650   2.347
   38Am      HC 2622   0.472   2.605   2.237
   38Am      HC 2623   0.694   3.098   2.054
   38Am      HC 2624   0.557   3.052   1.945
   38Am      HC 2625   0.418   2.665   1.982
   38Am      HC 2626   0.446   2.815   1.884
   38Am      CS 2627   0.811   2.987   2.418
   38Am      CS 2628   0.631   2.460   2.249
   38Am      CS 2629   0.747   3.075   1.847
   38Am      CS 2630   0.250   2.799   1.970
   38Am      CT 2631   0.957   2.988   2.462
   38Am      CT 2632   0.567   2.380   2.362
   38Am      CT 2633   0.726   3.221   1.812
   38Am      CT 2634   0.189   2.730   1.848
   38Am      HC 2635   0.750   2.942   2.500
   38Am      HC 2636   0.778   3.092   2.402
   38Am      HC 2637   0.993   2.885   2.481
   38Am      HC 2638   0.968   3.047   2.555
   38Am      HC 2639   1.021   3.034   2.383
   38Am      HC 2640   0.605   2.412   2.152
   38Am      HC 2641   0.742   2.458   2.261
   38Am      HC 2642   0.457   2.379   2.351
   38Am      HC 2643   0.604   2.276   2.360
   38Am      HC 2644   0.593   2.425   2.461
   38Am      HC 2645   0.205   2.620   1.853
   38Am      HC 2646   0.079   2.749   1.845
   38Am      HC 2647   0.234   2.770   1.755
   38Am      HC 2648   0.201   2.759   2.061
   38Am      HC 2649   0.229   2.908   1.964
   38Am      HC 2650   0.788   3.248   1.724
   38Am      HC 2651   0.756   3.286   1.898
   38Am      HC 2652   0.619   3.240   1.788
   38Am      HC 2653   0.718   3.013   1.759
   38Am      HC 2654   0.855   3.058   1.869
   39Am      N4 2655   2.084   0.781   2.846
   39Am     C1A 2656   2.178   0.665   2.822
   39Am     C1A 2657   2.155   0.912   2.828
   39Am     C1A 2658   2.032   0.780   2.987
   39Am     C1A 2659   1.972   0.765   2.747
   39Am      H1 2660   2.212   0.665   2.717
   39Am      H1 2661   2.123   0.569   2.833
   39Am      H1 2662   2.115   0.795   3.059
   39Am      H1 2663   1.965   0.868   3.004
   39Am      H1 2664   2.235   0.923   2.905
   39Am      H1 2665   2.085   0.996   2.850
   39Am      H1 2666   1.923   0.666   2.759
   39Am      H1 2667   2.013   0.762   2.643
   39Am      C2 2668   2.303   0.658   2.913
   39Am      C2 2669   2.218   0.938   2.689
   39Am      C2 2670   1.954   0.653   3.031
   39Am      C2 2671   1.861   0.873   2.751
   39Am      HC 2672   2.273   0.649   3.020
   39Am      HC 2673   2.365   0.748   2.900
   39Am      HC 2674   2.295   0.861   2.667
   39Am      HC 2675   2.141   0.937   2.610
   39Am      HC 2676   2.019   0.564   3.025
   39Am      HC 2677   1.864   0.639   2.968
   39Am      HC 2678   1.904   0.974   2.730
   39Am      HC 2679   1.811   0.874   2.850
   39Am      CS 2680   2.388   0.535   2.878
   39Am      CS 2681   2.286   1.075   2.686
   39Am      CS 2682   1.907   0.667   3.177
   39Am      CS 2683   1.754   0.845   2.644
   39Am      CT 2684   2.512   0.527   2.967
   39Am      CT 2685   2.349   1.102   2.549
   39Am      CT 2686   1.830   0.543   3.222
   39Am      CT 2687   1.644   0.951   2.647
   39Am      HC 2688   2.421   0.542   2.772
   39Am      HC 2689   2.328   0.443   2.891
   39Am      HC 2690   2.575   0.617   2.954
   39Am      HC 2691   2.572   0.438   2.939
   39Am      HC 2692   2.482   0.518   3.073
   39Am      HC 2693   2.212   1.155   2.707
   39Am      HC 2694   2.366   1.080   2.763
   39Am      HC 2695   2.272   1.101   2.470
   39Am      HC 2696   2.398   1.202   2.550
   39Am      HC 2697   2.427   1.026   2.527
   39Am      HC 2698   1.686   1.051   2.626
   39Am      HC 2699   1.568   0.927   2.569
   39Am      HC 2700   1.594   0.952   2.746
   39Am      HC 2701   1.801   0.844   2.543
   39Am      HC 2702   1.708   0.745   2.663
   39Am      HC 2703   1.798   0.555   3.327
   39Am      HC 2704   1.895   0.453   3.215
   39Am      HC 2705   1.740   0.528   3.158
   39Am      HC 2706   1.840   0.755   3.187
   39Am      HC 2707   1.995   0.680   3.243
   40Am      N4 2708   2.190   1.826   2.211
   40Am     C1A 2709   2.242   1.967   2.209
   40Am     C1A 2710   2.040   1.823   2.208
   40Am     C1A 2711   2.231   1.754   2.337
   40Am     C1A 2712   2.248   1.758   2.089
   40Am      H1 2713   2.214   2.017   2.114
   40Am      H1 2714   2.353   1.967   2.207
   40Am      H1 2715   2.185   1.803   2.425
   40Am      H1 2716   2.190   1.651   2.338
   40Am      H1 2717   1.999   1.870   2.300
   40Am      H1 2718   2.003   1.718   2.213
   40Am      H1 2719   2.359   1.764   2.091
   40Am      H1 2720   2.220   1.814   1.997
   40Am      C2 2721   2.197   2.058   2.325
   40Am      C2 2722   1.972   1.890   2.086
   40Am      C2 2723   2.384   1.743   2.363
   40Am      C2 2724   2.209   1.610   2.068
   40Am      HC 2725   2.230   2.017   2.422
   40Am      HC 2726   2.086   2.069   2.326
   40Am      HC 2727   1.998   1.998   2.082
   40Am      HC 2728   2.003   1.841   1.992
   40Am      HC 2729   2.429   1.844   2.372
   40Am      HC 2730   2.433   1.687   2.282
   40Am      HC 2731   2.099   1.599   2.056
   40Am      HC 2732   2.243   1.548   2.153
   40Am      CS 2733   2.257   2.199   2.310
   40Am      CS 2734   1.819   1.880   2.097
   40Am      CS 2735   2.410   1.669   2.495
   40Am      CS 2736   2.275   1.554   1.941
   40Am      CT 2737   2.213   2.290   2.424
   40Am      CT 2738   1.751   1.946   1.977
   40Am      CT 2739   2.560   1.658   2.523
   40Am      CT 2740   2.238   1.408   1.918
   40Am      HC 2741   2.224   2.243   2.214
   40Am      HC 2742   2.368   2.192   2.310
   40Am      HC 2743   2.102   2.301   2.425
   40Am      HC 2744   2.258   2.391   2.411
   40Am      HC 2745   2.247   2.249   2.522
   40Am      HC 2746   1.789   1.773   2.100
   40Am      HC 2747   1.785   1.930   2.190
   40Am      HC 2748   1.782   1.897   1.883
   40Am      HC 2749   1.641   1.937   1.988
   40Am      HC 2750   1.777   2.054   1.973
   40Am      HC 2751   2.128   1.398   1.907
   40Am      HC 2752   2.287   1.371   1.826
   40Am      HC 2753   2.272   1.346   2.004
   40Am      HC 2754   2.242   1.614   1.852
   40Am      HC 2755   2.386   1.562   1.949
   40Am      HC 2756   2.576   1.603   2.618
   40Am      HC 2757   2.605   1.758   2.531
   40Am      HC 2758   2.610   1.601   2.441
   40Am      HC 2759   2.367   1.567   2.489
   40Am      HC 2760   2.362   1.723   2.579
   41Am      N4 2761   3.327   3.931   2.190
   41Am     C1A 2762   3.250   4.019   2.286
   41Am     C1A 2763   3.246   3.811   2.150
   41Am     C1A 2764   3.452   3.877   2.255
   41Am     C1A 2765   3.360   4.017   2.071
   41Am      H1 2766   3.160   4.060   2.236
   41Am      H1 2767   3.310   4.108   2.312
   41Am      H1 2768   3.426   3.811   2.340
   41Am      H1 2769   3.506   3.810   2.184
   41Am      H1 2770   3.225   3.747   2.238
   41Am      H1 2771   3.305   3.745   2.082
   41Am      H1 2772   3.417   4.107   2.103
   41Am      H1 2773   3.267   4.058   2.027
   41Am      C2 2774   3.204   3.953   2.418
   41Am      C2 2775   3.110   3.840   2.080
   41Am      C2 2776   3.554   3.982   2.306
   41Am      C2 2777   3.440   3.949   1.957
   41Am      HC 2778   3.292   3.917   2.476
   41Am      HC 2779   3.137   3.867   2.398
   41Am      HC 2780   3.044   3.898   2.147
   41Am      HC 2781   3.126   3.896   1.986
   41Am      HC 2782   3.507   4.046   2.383
   41Am      HC 2783   3.590   4.045   2.222
   41Am      HC 2784   3.383   3.863   1.915
   41Am      HC 2785   3.538   3.913   1.994
   41Am      CS 2786   3.128   4.054   2.505
   41Am      CS 2787   3.039   3.708   2.045
   41Am      CS 2788   3.676   3.913   2.369
   41Am      CS 2789   3.466   4.048   1.843
   41Am      CT 2790   3.082   3.990   2.636
   41Am      CT 2791   2.905   3.735   1.976
   41Am      CT 2792   3.777   4.015   2.420
   41Am      CT 2793   3.544   3.983   1.729
   41Am      HC 2794   3.039   4.090   2.450
   41Am      HC 2795   3.194   4.140   2.528
   41Am      HC 2796   3.014   3.905   2.615
   41Am      HC 2797   3.027   4.065   2.696
   41Am      HC 2798   3.170   3.955   2.694
   41Am      HC 2799   3.103   3.648   1.976
   41Am      HC 2800   3.020   3.650   2.137
   41Am      HC 2801   2.921   3.792   1.882
   41Am      HC 2802   2.856   3.639   1.952
   41Am      HC 2803   2.838   3.793   2.043
   41Am      HC 2804   3.487   3.897   1.688
   41Am      HC 2805   3.561   4.057   1.648
   41Am      HC 2806   3.642   3.947   1.766
   41Am      HC 2807   3.369   4.085   1.803
   41Am      HC 2808   3.524   4.135   1.881
   41Am      HC 2809   3.864   3.963   2.464
   41Am      HC 2810   3.731   4.080   2.497
   41Am      HC 2811   3.813   4.079   2.336
   41Am      HC 2812   3.725   3.849   2.293
   41Am      HC 2813   3.643   3.850   2.454
   42Am      N4 2814   2.981   2.145   2.950
   42Am     C1A 2815   3.130   2.169   2.947
   42Am     C1A 2816   2.915   2.227   3.058
   42Am     C1A 2817   2.951   2.001   2.982
   42Am     C1A 2818   2.930   2.182   2.814
   42Am      H1 2819   3.151   2.275   2.920
   42Am      H1 2820   3.177   2.111   2.865
   42Am      H1 2821   2.987   1.976   3.084
   42Am      H1 2822   2.841   1.985   2.987
   42Am      H1 2823   2.952   2.195   3.158
   42Am      H1 2824   2.806   2.205   3.061
   42Am      H1 2825   2.982   2.124   2.735
   42Am      H1 2826   2.956   2.288   2.790
   42Am      C2 2827   3.208   2.138   3.077
   42Am      C2 2828   2.932   2.380   3.047
   42Am      C2 2829   3.009   1.895   2.885
   42Am      C2 2830   2.777   2.166   2.791
   42Am      HC 2831   3.197   2.031   3.103
   42Am      HC 2832   3.171   2.200   3.161
   42Am      HC 2833   3.039   2.408   3.053
   42Am      HC 2834   2.889   2.418   2.953
   42Am      HC 2835   3.119   1.901   2.882
   42Am      HC 2836   2.969   1.911   2.782
   42Am      HC 2837   2.720   2.230   2.862
   42Am      HC 2838   2.747   2.060   2.805
   42Am      CS 2839   3.358   2.167   3.059
   42Am      CS 2840   2.860   2.450   3.163
   42Am      CS 2841   2.970   1.754   2.930
   42Am      CS 2842   2.739   2.208   2.649
   42Am      CT 2843   3.436   2.137   3.186
   42Am      CT 2844   2.875   2.602   3.155
   42Am      CT 2845   3.026   1.648   2.835
   42Am      CT 2846   2.589   2.193   2.625
   42Am      HC 2847   3.372   2.275   3.033
   42Am      HC 2848   3.398   2.105   2.976
   42Am      HC 2849   3.399   2.199   3.270
   42Am      HC 2850   3.543   2.159   3.170
   42Am      HC 2851   3.425   2.030   3.213
   42Am      HC 2852   2.752   2.425   3.161
   42Am      HC 2853   2.902   2.416   3.260
   42Am      HC 2854   2.832   2.640   3.060
   42Am      HC 2855   2.822   2.650   3.240
   42Am      HC 2856   2.983   2.630   3.160
   42Am      HC 2857   2.532   2.257   2.695
   42Am      HC 2858   2.565   2.224   2.521
   42Am      HC 2859   2.558   2.087   2.638
   42Am      HC 2860   2.767   2.314   2.632
   42Am      HC 2861   2.793   2.145   2.575
   42Am      HC 2862   2.996   1.547   2.870
   42Am      HC 2863   3.137   1.653   2.832
   42Am      HC 2864   2.986   1.663   2.732
   42Am      HC 2865   2.859   1.744   2.932
   42Am      HC 2866   3.009   1.735   3.032
   43Am      N4 2867   4.101   1.190   2.099
   43Am     C1A 2868   4.216   1.283   2.130
   43Am     C1A 2869   4.147   1.075   2.012
   43Am     C1A 2870   3.993   1.261   2.021
   43Am     C1A 2871   4.049   1.141   2.231
   43Am      H1 2872   4.293   1.230   2.190
   43Am      H1 2873   4.181   1.365   2.197
   43Am      H1 2874   4.032   1.293   1.922
   43Am      H1 2875   3.911   1.191   1.996
   43Am      H1 2876   4.181   1.113   1.913
   43Am      H1 2877   4.060   1.010   1.987
   43Am      H1 2878   4.019   1.227   2.295
   43Am      H1 2879   4.131   1.092   2.289
   43Am      C2 2880   4.287   1.347   2.009
   43Am      C2 2881   4.258   0.985   2.070
   43Am      C2 2882   3.930   1.385   2.089
   43Am      C2 2883   3.930   1.043   2.226
   43Am      HC 2884   4.216   1.409   1.950
   43Am      HC 2885   4.331   1.270   1.943
   43Am      HC 2886   4.350   1.045   2.089
   43Am      HC 2887   4.225   0.938   2.165
   43Am      HC 2888   4.006   1.462   2.109
   43Am      HC 2889   3.882   1.356   2.185
   43Am      HC 2890   3.957   0.951   2.171
   43Am      HC 2891   3.842   1.090   2.177
   43Am      CS 2892   4.401   1.439   2.056
   43Am      CS 2893   4.294   0.873   1.972
   43Am      CS 2894   3.822   1.447   1.999
   43Am      CS 2895   3.888   1.001   2.368
   43Am      CT 2896   4.472   1.504   1.937
   43Am      CT 2897   4.404   0.784   2.028
   43Am      CT 2898   3.758   1.569   2.065
   43Am      CT 2899   3.770   0.904   2.365
   43Am      HC 2900   4.475   1.380   2.114
   43Am      HC 2901   4.360   1.519   2.121
   43Am      HC 2902   4.516   1.426   1.872
   43Am      HC 2903   4.554   1.569   1.974
   43Am      HC 2904   4.401   1.565   1.878
   43Am      HC 2905   4.204   0.811   1.952
   43Am      HC 2906   4.329   0.917   1.876
   43Am      HC 2907   4.371   0.736   2.122
   43Am      HC 2908   4.428   0.703   1.954
   43Am      HC 2909   4.496   0.843   2.046
   43Am      HC 2910   3.797   0.812   2.309
   43Am      HC 2911   3.742   0.876   2.468
   43Am      HC 2912   3.682   0.951   2.316
   43Am      HC 2913   3.973   0.952   2.419
   43Am      HC 2914   3.858   1.091   2.426
   43Am      HC 2915   3.681   1.611   1.997
   43Am      HC 2916   3.835   1.646   2.084
   43Am      HC 2917   3.710   1.540   2.160
   43Am      HC 2918   3.743   1.372   1.978
   43Am      HC 2919   3.868   1.478   1.902
   44Am      N4 2920   2.114   0.833   2.127
   44Am     C1A 2921   2.003   0.734   2.102
   44Am     C1A 2922   2.202   0.787   2.240
   44Am     C1A 2923   2.060   0.967   2.168
   44Am     C1A 2924   2.192   0.843   1.998
   44Am      H1 2925   2.045   0.637   2.068
   44Am      H1 2926   1.941   0.768   2.016
   44Am      H1 2927   2.006   0.958   2.265
   44Am      H1 2928   2.143   1.037   2.190
   44Am      H1 2929   2.144   0.783   2.335
   44Am      H1 2930   2.282   0.862   2.260
   44Am      H1 2931   2.124   0.873   1.916
   44Am      H1 2932   2.228   0.742   1.968
   44Am      C2 2933   1.907   0.706   2.220
   44Am      C2 2934   2.271   0.649   2.222
   44Am      C2 2935   1.965   1.036   2.068
   44Am      C2 2936   2.313   0.939   1.999
   44Am      HC 2937   1.856   0.799   2.252
   44Am      HC 2938   1.963   0.664   2.306
   44Am      HC 2939   2.196   0.569   2.211
   44Am      HC 2940   2.338   0.650   2.133
   44Am      HC 2941   1.875   0.974   2.049
   44Am      HC 2942   2.017   1.055   1.972
   44Am      HC 2943   2.388   0.907   2.074
   44Am      HC 2944   2.281   1.042   2.020
   44Am      CS 2945   1.800   0.605   2.180
   44Am      CS 2946   2.358   0.616   2.345
   44Am      CS 2947   1.917   1.171   2.123
   44Am      CS 2948   2.382   0.938   1.862
   44Am      CT 2949   1.704   0.576   2.296
   44Am      CT 2950   2.427   0.480   2.328
   44Am      CT 2951   1.823   1.241   2.025
   44Am      CT 2952   2.502   1.033   1.860
   44Am      HC 2953   1.848   0.510   2.149
   44Am      HC 2954   1.741   0.645   2.095
   44Am      HC 2955   1.760   0.534   2.382
   44Am      HC 2956   1.628   0.502   2.264
   44Am      HC 2957   1.653   0.669   2.328
   44Am      HC 2958   2.435   0.694   2.358
   44Am      HC 2959   2.294   0.612   2.436
   44Am      HC 2960   2.493   0.481   2.239
   44Am      HC 2961   2.488   0.459   2.418
   44Am      HC 2962   2.351   0.400   2.317
   44Am      HC 2963   2.577   1.001   1.936
   44Am      HC 2964   2.550   1.031   1.760
   44Am      HC 2965   2.470   1.137   1.882
   44Am      HC 2966   2.417   0.836   1.837
   44Am      HC 2967   2.310   0.971   1.783
   44Am      HC 2968   1.791   1.339   2.067
   44Am      HC 2969   1.733   1.179   2.006
   44Am      HC 2970   1.875   1.260   1.928
   44Am      HC 2971   2.005   1.237   2.141
   44Am      HC 2972   1.863   1.156   2.219
   45Am      N4 2973   3.995   0.020   2.689
   45Am     C1A 2974   4.079   0.098   2.591
   45Am     C1A 2975   4.053  -0.117   2.713
   45Am     C1A 2976   3.856  -0.002   2.636
   45Am     C1A 2977   3.992   0.101   2.816
   45Am      H1 2978   4.180   0.116   2.633
   45Am      H1 2979   4.037   0.200   2.577
   45Am      H1 2980   3.859  -0.065   2.544
   45Am      H1 2981   3.796  -0.062   2.708
   45Am      H1 2982   4.051  -0.176   2.619
   45Am      H1 2983   3.988  -0.174   2.783
   45Am      H1 2984   3.953   0.203   2.795
   45Am      H1 2985   4.096   0.120   2.852
   45Am      C2 2986   4.097   0.035   2.451
   45Am      C2 2987   4.197  -0.121   2.769
   45Am      C2 2988   3.774   0.125   2.602
   45Am      C2 2989   3.912   0.042   2.934
   45Am      HC 2990   3.999   0.023   2.401
   45Am      HC 2991   4.147  -0.064   2.459
   45Am      HC 2992   4.268  -0.073   2.698
   45Am      HC 2993   4.203  -0.071   2.867
   45Am      HC 2994   3.825   0.185   2.524
   45Am      HC 2995   3.760   0.188   2.693
   45Am      HC 2996   3.953  -0.056   2.964
   45Am      HC 2997   3.805   0.030   2.906
   45Am      CS 2998   4.184   0.125   2.362
   45Am      CS 2999   4.243  -0.267   2.789
   45Am      CS 3000   3.635   0.088   2.549
   45Am      CS 3001   3.918   0.135   3.056
   45Am      CT 3002   4.203   0.064   2.223
   45Am      CT 3003   4.385  -0.273   2.844
   45Am      CT 3004   3.553   0.212   2.516
   45Am      CT 3005   3.839   0.078   3.173
   45Am      HC 3006   4.284   0.138   2.409
   45Am      HC 3007   4.136   0.225   2.351
   45Am      HC 3008   4.253  -0.035   2.231
   45Am      HC 3009   4.266   0.131   2.162
   45Am      HC 3010   4.105   0.052   2.173
   45Am      HC 3011   4.175  -0.318   2.860
   45Am      HC 3012   4.240  -0.320   2.691
   45Am      HC 3013   4.391  -0.222   2.942
   45Am      HC 3014   4.415  -0.379   2.857
   45Am      HC 3015   4.456  -0.225   2.773
   45Am      HC 3016   3.880  -0.021   3.203
   45Am      HC 3017   3.845   0.147   3.260
   45Am      HC 3018   3.732   0.066   3.145
   45Am      HC 3019   4.024   0.148   3.087
   45Am      HC 3020   3.876   0.235   3.029
   45Am      HC 3021   3.453   0.182   2.478
   45Am      HC 3022   3.604   0.272   2.438
   45Am      HC 3023   3.539   0.275   2.606
   45Am      HC 3024   3.580   0.029   2.626
   45Am      HC 3025   3.645   0.026   2.458
   46Am      N4 3026   2.193   1.798   1.485
   46Am     C1A 3027   2.069   1.814   1.401
   46Am     C1A 3028   2.214   1.654   1.524
   46Am     C1A 3029   2.182   1.875   1.613
   46Am     C1A 3030   2.308   1.849   1.401
   46Am      H1 3031   2.081   1.759   1.305
   46Am      H1 3032   2.057   1.920   1.370
   46Am      H1 3033   2.099   1.835   1.675
   46Am      H1 3034   2.273   1.860   1.675
   46Am      H1 3035   2.131   1.620   1.588
   46Am      H1 3036   2.304   1.645   1.589
   46Am      H1 3037   2.289   1.954   1.370
   46Am      H1 3038   2.312   1.793   1.305
   46Am      C2 3039   1.936   1.769   1.465
   46Am      C2 3040   2.229   1.553   1.408
   46Am      C2 3041   2.160   2.028   1.600
   46Am      C2 3042   2.448   1.842   1.465
   46Am      HC 3043   1.916   1.827   1.557
   46Am      HC 3044   1.940   1.661   1.490
   46Am      HC 3045   2.138   1.552   1.345
   46Am      HC 3046   2.317   1.578   1.345
   46Am      HC 3047   2.065   2.049   1.546
   46Am      HC 3048   2.244   2.075   1.546
   46Am      HC 3049   2.475   1.738   1.490
   46Am      HC 3050   2.451   1.904   1.557
   46Am      CS 3051   1.819   1.791   1.369
   46Am      CS 3052   2.249   1.411   1.462
   46Am      CS 3053   2.150   2.093   1.738
   46Am      CS 3054   2.554   1.897   1.369
   46Am      CT 3055   1.687   1.747   1.431
   46Am      CT 3056   2.264   1.309   1.349
   46Am      CT 3057   2.128   2.244   1.727
   46Am      CT 3058   2.694   1.892   1.431
   46Am      HC 3059   1.836   1.732   1.275
   46Am      HC 3060   1.812   1.899   1.342
   46Am      HC 3061   1.690   1.638   1.456
   46Am      HC 3062   1.604   1.764   1.359
   46Am      HC 3063   1.666   1.805   1.523
   46Am      HC 3064   2.341   1.408   1.525
   46Am      HC 3065   2.162   1.382   1.525
   46Am      HC 3066   2.352   1.334   1.286
   46Am      HC 3067   2.279   1.208   1.392
   46Am      HC 3068   2.173   1.308   1.286
   46Am      HC 3069   2.721   1.787   1.456
   46Am      HC 3070   2.768   1.932   1.359
   46Am      HC 3071   2.697   1.953   1.523
   46Am      HC 3072   2.555   1.836   1.275
   46Am      HC 3073   2.531   2.002   1.343
   46Am      HC 3074   2.122   2.289   1.829
   46Am      HC 3075   2.034   2.265   1.673
   46Am      HC 3076   2.213   2.292   1.673
   46Am      HC 3077   2.244   2.075   1.795
   46Am      HC 3078   2.065   2.049   1.795
   47Am      N4 3079   1.259   1.179   1.637
   47Am     C1A 3080   1.260   1.107   1.769
   47Am     C1A 3081   1.265   1.082   1.522
   47Am     C1A 3082   1.380   1.268   1.623
   47Am     C1A 3083   1.132   1.260   1.633
   47Am      H1 3084   1.168   1.044   1.779
   47Am      H1 3085   1.252   1.180   1.852
   47Am      H1 3086   1.473   1.206   1.622
   47Am      H1 3087   1.380   1.318   1.523
   47Am      H1 3088   1.361   1.026   1.524
   47Am      H1 3089   1.268   1.137   1.425
   47Am      H1 3090   1.128   1.328   1.721
   47Am      H1 3091   1.044   1.193   1.647
   47Am      C2 3092   1.382   1.016   1.797
   47Am      C2 3093   1.150   0.978   1.513
   47Am      C2 3094   1.398   1.378   1.731
   47Am      C2 3095   1.107   1.344   1.506
   47Am      HC 3096   1.475   1.075   1.797
   47Am      HC 3097   1.389   0.936   1.721
   47Am      HC 3098   1.148   0.915   1.604
   47Am      HC 3099   1.052   1.030   1.502
   47Am      HC 3100   1.407   1.332   1.831
   47Am      HC 3101   1.311   1.447   1.730
   47Am      HC 3102   1.102   1.279   1.416
   47Am      HC 3103   1.189   1.418   1.492
   47Am      CS 3104   1.369   0.949   1.935
   47Am      CS 3105   1.169   0.887   1.392
   47Am      CS 3106   1.525   1.460   1.704
   47Am      CS 3107   0.975   1.421   1.517
   47Am      CT 3108   1.488   0.859   1.964
   47Am      CT 3109   1.056   0.784   1.382
   47Am      CT 3110   1.543   1.568   1.809
   47Am      CT 3111   0.949   1.504   1.392
   47Am      HC 3112   1.276   0.888   1.938
   47Am      HC 3113   1.362   1.027   2.014
   47Am      HC 3114   1.496   0.779   1.888
   47Am      HC 3115   1.476   0.812   2.064
   47Am      HC 3116   1.582   0.918   1.964
   47Am      HC 3117   1.170   0.947   1.299
   47Am      HC 3118   1.265   0.833   1.401
   47Am      HC 3119   0.958   0.835   1.371
   47Am      HC 3120   1.072   0.719   1.293
   47Am      HC 3121   1.054   0.720   1.473
   47Am      HC 3122   0.943   1.439   1.302
   47Am      HC 3123   0.853   1.558   1.402
   47Am      HC 3124   1.030   1.579   1.378
   47Am      HC 3125   0.891   1.349   1.529
   47Am      HC 3126   0.978   1.488   1.605
   47Am      HC 3127   1.636   1.626   1.787
   47Am      HC 3128   1.553   1.523   1.910
   47Am      HC 3129   1.457   1.638   1.808
   47Am      HC 3130   1.518   1.508   1.604
   47Am      HC 3131   1.613   1.393   1.705
   48Am      N4 3132   3.964   2.365   1.718
   48Am     C1A 3133   4.056   2.444   1.808
   48Am     C1A 3134   3.877   2.271   1.798
   48Am     C1A 3135   4.043   2.278   1.622
   48Am     C1A 3136   3.880   2.466   1.643
   48Am      H1 3137   3.996   2.509   1.875
   48Am      H1 3138   4.116   2.515   1.747
   48Am      H1 3139   4.101   2.202   1.679
   48Am      H1 3140   3.973   2.218   1.559
   48Am      H1 3141   3.940   2.195   1.849
   48Am      H1 3142   3.813   2.211   1.730
   48Am      H1 3143   3.946   2.536   1.588
   48Am      H1 3144   3.826   2.530   1.715
   48Am      C2 3145   4.153   2.362   1.896
   48Am      C2 3146   3.786   2.336   1.904
   48Am      C2 3147   4.141   2.352   1.528
   48Am      C2 3148   3.777   2.409   1.544
   48Am      HC 3149   4.221   2.301   1.832
   48Am      HC 3150   4.097   2.295   1.964
   48Am      HC 3151   3.846   2.390   1.980
   48Am      HC 3152   3.714   2.406   1.857
   48Am      HC 3153   4.217   2.407   1.586
   48Am      HC 3154   4.086   2.423   1.463
   48Am      HC 3155   3.703   2.344   1.596
   48Am      HC 3156   3.827   2.350   1.464
   48Am      CS 3157   4.240   2.455   1.981
   48Am      CS 3158   3.704   2.228   1.977
   48Am      CS 3159   4.213   2.252   1.437
   48Am      CS 3160   3.699   2.523   1.476
   48Am      CT 3161   4.337   2.376   2.069
   48Am      CT 3162   3.613   2.291   2.083
   48Am      CT 3163   4.310   2.323   1.343
   48Am      CT 3164   3.596   2.468   1.377
   48Am      HC 3165   4.175   2.517   2.047
   48Am      HC 3166   4.298   2.523   1.915
   48Am      HC 3167   4.281   2.309   2.138
   48Am      HC 3168   4.398   2.446   2.129
   48Am      HC 3169   4.405   2.315   2.006
   48Am      HC 3170   3.641   2.173   1.905
   48Am      HC 3171   3.772   2.157   2.028
   48Am      HC 3172   3.541   2.362   2.035
   48Am      HC 3173   3.555   2.211   2.134
   48Am      HC 3174   3.673   2.345   2.159
   48Am      HC 3175   3.523   2.404   1.429
   48Am      HC 3176   3.542   2.553   1.329
   48Am      HC 3177   3.647   2.409   1.297
   48Am      HC 3178   3.647   2.583   1.553
   48Am      HC 3179   3.770   2.589   1.421
   48Am      HC 3180   4.361   2.248   1.279
   48Am      HC 3181   4.387   2.378   1.401
   48Am      HC 3182   4.256   2.395   1.278
   48Am      HC 3183   4.139   2.196   1.376
   48Am      HC 3184   4.270   2.179   1.499
   49Am      N4 3185   0.481   0.919   3.093
   49Am     C1A 3186   0.592   0.975   3.178
   49Am     C1A 3187   0.513   0.929   2.947
   49Am     C1A 3188   0.353   0.996   3.114
   49Am     C1A 3189   0.464   0.775   3.136
   49Am      H1 3190   0.685   0.914   3.164
   49Am      H1 3191   0.568   0.963   3.286
   49Am      H1 3192   0.366   1.101   3.079
   49Am      H1 3193   0.273   0.956   3.049
   49Am      H1 3194   0.521   1.035   2.917
   49Am      H1 3195   0.428   0.890   2.886
   49Am      H1 3196   0.444   0.769   3.245
   49Am      H1 3197   0.560   0.720   3.123
   49Am      C2 3198   0.629   1.123   3.153
   49Am      C2 3199   0.641   0.856   2.899
   49Am      C2 3200   0.298   1.001   3.259
   49Am      C2 3201   0.354   0.694   3.063
   49Am      HC 3202   0.542   1.189   3.174
   49Am      HC 3203   0.662   1.138   3.048
   49Am      HC 3204   0.730   0.897   2.951
   49Am      HC 3205   0.634   0.747   2.919
   49Am      HC 3206   0.372   1.049   3.327
   49Am      HC 3207   0.275   0.899   3.296
   49Am      HC 3208   0.375   0.689   2.954
   49Am      HC 3209   0.255   0.740   3.080
   49Am      CS 3210   0.744   1.166   3.245
   49Am      CS 3211   0.661   0.875   2.748
   49Am      CS 3212   0.169   1.083   3.265
   49Am      CS 3213   0.349   0.550   3.116
   49Am      CT 3214   0.781   1.312   3.222
   49Am      CT 3215   0.787   0.804   2.700
   49Am      CT 3216   0.113   1.089   3.407
   49Am      CT 3217   0.241   0.469   3.045
   49Am      HC 3218   0.833   1.103   3.226
   49Am      HC 3219   0.714   1.153   3.351
   49Am      HC 3220   0.814   1.328   3.118
   49Am      HC 3221   0.864   1.340   3.290
   49Am      HC 3222   0.695   1.378   3.243
   49Am      HC 3223   0.573   0.834   2.694
   49Am      HC 3224   0.669   0.984   2.725
   49Am      HC 3225   0.780   0.695   2.720
   49Am      HC 3226   0.799   0.820   2.590
   49Am      HC 3227   0.876   0.845   2.751
   49Am      HC 3228   0.261   0.464   2.936
   49Am      HC 3229   0.240   0.365   3.086
   49Am      HC 3230   0.141   0.515   3.062
   49Am      HC 3231   0.447   0.501   3.100
   49Am      HC 3232   0.327   0.551   3.225
   49Am      HC 3233   0.020   1.149   3.408
   49Am      HC 3234   0.187   1.137   3.475
   49Am      HC 3235   0.090   0.987   3.444
   49Am      HC 3236   0.092   1.037   3.198
   49Am      HC 3237   0.188   1.187   3.230
   50Am      N4 3238   3.017   0.596   1.492
   50Am     C1A 3239   2.898   0.566   1.405
   50Am     C1A 3240   3.058   0.476   1.573
   50Am     C1A 3241   2.986   0.706   1.590
   50Am     C1A 3242   3.128   0.638   1.398
   50Am      H1 3243   2.924   0.488   1.331
   50Am      H1 3244   2.872   0.655   1.343
   50Am      H1 3245   2.907   0.672   1.661
   50Am      H1 3246   3.075   0.725   1.656
   50Am      H1 3247   2.977   0.449   1.644
   50Am      H1 3248   3.144   0.501   1.638
   50Am      H1 3249   3.095   0.724   1.336
   50Am      H1 3250   3.147   0.557   1.323
   50Am      C2 3251   2.770   0.521   1.479
   50Am      C2 3252   3.095   0.349   1.493
   50Am      C2 3253   2.942   0.842   1.531
   50Am      C2 3254   3.263   0.675   1.463
   50Am      HC 3255   2.735   0.600   1.548
   50Am      HC 3256   2.788   0.427   1.535
   50Am      HC 3257   3.009   0.314   1.432
   50Am      HC 3258   3.182   0.368   1.427
   50Am      HC 3259   2.849   0.830   1.472
   50Am      HC 3260   3.022   0.884   1.466
   50Am      HC 3261   3.305   0.588   1.519
   50Am      HC 3262   3.251   0.761   1.532
   50Am      CS 3263   2.657   0.493   1.378
   50Am      CS 3264   3.134   0.235   1.589
   50Am      CS 3265   2.914   0.943   1.643
   50Am      CS 3266   3.366   0.715   1.356
   50Am      CT 3267   2.529   0.449   1.449
   50Am      CT 3268   3.171   0.108   1.512
   50Am      CT 3269   2.870   1.077   1.586
   50Am      CT 3270   3.500   0.751   1.418
   50Am      HC 3271   2.688   0.414   1.308
   50Am      HC 3272   2.635   0.586   1.321
   50Am      HC 3273   2.547   0.355   1.506
   50Am      HC 3274   2.450   0.430   1.374
   50Am      HC 3275   2.494   0.527   1.519
   50Am      HC 3276   3.221   0.266   1.651
   50Am      HC 3277   3.048   0.212   1.656
   50Am      HC 3278   3.258   0.128   1.445
   50Am      HC 3279   3.198   0.028   1.584
   50Am      HC 3280   3.085   0.074   1.451
   50Am      HC 3281   3.541   0.665   1.474
   50Am      HC 3282   3.572   0.780   1.339
   50Am      HC 3283   3.488   0.837   1.488
   50Am      HC 3284   3.381   0.630   1.285
   50Am      HC 3285   3.328   0.802   1.298
   50Am      HC 3286   2.850   1.148   1.669
   50Am      HC 3287   2.777   1.066   1.527
   50Am      HC 3288   2.949   1.120   1.521
   50Am      HC 3289   3.006   0.958   1.704
   50Am      HC 3290   2.833   0.904   1.709
   51Am      N4 3291   1.273   0.020   1.678
   51Am     C1A 3292   1.352   0.038   1.805
   51Am     C1A 3293   1.160  -0.078   1.699
   51Am     C1A 3294   1.360  -0.038   1.569
   51Am     C1A 3295   1.222   0.156   1.641
   51Am      H1 3296   1.288   0.084   1.884
   51Am      H1 3297   1.433   0.113   1.789
   51Am      H1 3298   1.394  -0.140   1.597
   51Am      H1 3299   1.299  -0.054   1.477
   51Am      H1 3300   1.200  -0.178   1.723
   51Am      H1 3301   1.105  -0.093   1.603
   51Am      H1 3302   1.306   0.228   1.629
   51Am      H1 3303   1.161   0.199   1.724
   51Am      C2 3304   1.417  -0.089   1.865
   51Am      C2 3305   1.056  -0.041   1.807
   51Am      C2 3306   1.484   0.045   1.529
   51Am      C2 3307   1.136   0.164   1.512
   51Am      HC 3308   1.489  -0.134   1.794
   51Am      HC 3309   1.339  -0.163   1.891
   51Am      HC 3310   1.105  -0.033   1.907
   51Am      HC 3311   1.007   0.056   1.783
   51Am      HC 3312   1.553   0.056   1.615
   51Am      HC 3313   1.455   0.145   1.492
   51Am      HC 3314   1.046   0.101   1.521
   51Am      HC 3315   1.195   0.131   1.424
   51Am      CS 3316   1.494  -0.055   1.994
   51Am      CS 3317   0.948  -0.148   1.817
   51Am      CS 3318   1.562  -0.026   1.417
   51Am      CS 3319   1.091   0.308   1.486
   51Am      CT 3320   1.559  -0.179   2.054
   51Am      CT 3321   0.844  -0.113   1.924
   51Am      CT 3322   1.685   0.054   1.376
   51Am      CT 3323   1.006   0.318   1.360
   51Am      HC 3324   1.425  -0.011   2.068
   51Am      HC 3325   1.574   0.019   1.971
   51Am      HC 3326   1.481  -0.254   2.080
   51Am      HC 3327   1.613  -0.151   2.147
   51Am      HC 3328   1.630  -0.224   1.982
   51Am      HC 3329   0.896  -0.158   1.719
   51Am      HC 3330   0.994  -0.246   1.842
   51Am      HC 3331   0.795  -0.017   1.899
   51Am      HC 3332   0.767  -0.193   1.928
   51Am      HC 3333   0.893  -0.105   2.023
   51Am      HC 3334   0.915   0.255   1.369
   51Am      HC 3335   0.975   0.423   1.344
   51Am      HC 3336   1.064   0.285   1.271
   51Am      HC 3337   1.030   0.345   1.572
   51Am      HC 3338   1.179   0.374   1.475
   51Am      HC 3339   1.739   0.001   1.295
   51Am      HC 3340   1.754   0.066   1.463
   51Am      HC 3341   1.656   0.154   1.339
   51Am      HC 3342   1.496  -0.038   1.328
   51Am      HC 3343   1.594  -0.127   1.451
   52Am      N4 3344   0.209   3.993   2.688
   52Am     C1A 3345   0.145   3.883   2.768
   52Am     C1A 3346   0.285   4.088   2.777
   52Am     C1A 3347   0.106   4.076   2.616
   52Am     C1A 3348   0.302   3.925   2.591
   52Am      H1 3349   0.222   3.821   2.818
   52Am      H1 3350   0.092   3.812   2.700
   52Am      H1 3351   0.041   4.128   2.690
   52Am      H1 3352   0.156   4.158   2.560
   52Am      H1 3353   0.214   4.139   2.846
   52Am      H1 3354   0.329   4.170   2.717
   52Am      H1 3355   0.245   3.853   2.528
   52Am      H1 3356   0.375   3.862   2.645
   52Am      C2 3357   0.043   3.927   2.876
   52Am      C2 3358   0.398   4.026   2.863
   52Am      C2 3359   0.014   4.001   2.517
   52Am      C2 3360   0.382   4.018   2.496
   52Am      HC 3361  -0.041   3.983   2.830
   52Am      HC 3362   0.093   3.992   2.952
   52Am      HC 3363   0.357   3.949   2.932
   52Am      HC 3364   0.476   3.980   2.799
   52Am      HC 3365  -0.044   3.922   2.569
   52Am      HC 3366   0.074   3.954   2.436
   52Am      HC 3367   0.447   4.086   2.554
   52Am      HC 3368   0.313   4.077   2.432
   52Am      CS 3369  -0.015   3.805   2.949
   52Am      CS 3370   0.466   4.134   2.949
   52Am      CS 3371  -0.085   4.097   2.451
   52Am      CS 3372   0.472   3.935   2.402
   52Am      CT 3373  -0.115   3.847   3.056
   52Am      CT 3374   0.577   4.075   3.034
   52Am      CT 3375  -0.176   4.025   2.353
   52Am      CT 3376   0.551   4.025   2.308
   52Am      HC 3377   0.068   3.748   2.997
   52Am      HC 3378  -0.066   3.739   2.876
   52Am      HC 3379  -0.065   3.912   3.132
   52Am      HC 3380  -0.155   3.757   3.107
   52Am      HC 3381  -0.199   3.903   3.011
   52Am      HC 3382   0.509   4.213   2.883
   52Am      HC 3383   0.391   4.181   3.016
   52Am      HC 3384   0.655   4.029   2.970
   52Am      HC 3385   0.624   4.155   3.095
   52Am      HC 3386   0.537   3.997   3.103
   52Am      HC 3387   0.617   4.094   2.366
   52Am      HC 3388   0.615   3.962   2.242
   52Am      HC 3389   0.482   4.085   2.245
   52Am      HC 3390   0.543   3.875   2.463
   52Am      HC 3391   0.409   3.866   2.342
   52Am      HC 3392  -0.247   4.097   2.307
   52Am      HC 3393  -0.235   3.946   2.406
   52Am      HC 3394  -0.117   3.978   2.272
   52Am      HC 3395  -0.030   4.177   2.397
   52Am      HC 3396  -0.148   4.145   2.530
   53Am      N4 3397   1.461   3.554   3.099
   53Am     C1A 3398   1.328   3.582   3.032
   53Am     C1A 3399   1.446   3.449   3.205
   53Am     C1A 3400   1.514   3.677   3.167
   53Am     C1A 3401   1.554   3.509   2.989
   53Am      H1 3402   1.292   3.491   2.979
   53Am      H1 3403   1.341   3.658   2.951
   53Am      H1 3404   1.445   3.707   3.250
   53Am      H1 3405   1.610   3.654   3.219
   53Am      H1 3406   1.380   3.486   3.287
   53Am      H1 3407   1.544   3.432   3.256
   53Am      H1 3408   1.560   3.586   2.910
   53Am      H1 3409   1.511   3.420   2.937
   53Am      C2 3410   1.214   3.631   3.124
   53Am      C2 3411   1.393   3.311   3.159
   53Am      C2 3412   1.537   3.802   3.078
   53Am      C2 3413   1.698   3.473   3.033
   53Am      HC 3414   1.242   3.727   3.173
   53Am      HC 3415   1.191   3.555   3.202
   53Am      HC 3416   1.291   3.321   3.116
   53Am      HC 3417   1.461   3.266   3.084
   53Am      HC 3418   1.442   3.834   3.031
   53Am      HC 3419   1.611   3.779   2.999
   53Am      HC 3420   1.698   3.390   3.106
   53Am      HC 3421   1.748   3.562   3.077
   53Am      CS 3422   1.086   3.655   3.043
   53Am      CS 3423   1.384   3.214   3.278
   53Am      CS 3424   1.591   3.919   3.161
   53Am      CS 3425   1.781   3.429   2.911
   53Am      CT 3426   0.972   3.704   3.132
   53Am      CT 3427   1.332   3.078   3.234
   53Am      CT 3428   1.614   4.042   3.075
   53Am      CT 3429   1.924   3.393   2.952
   53Am      HC 3430   1.055   3.561   2.993
   53Am      HC 3431   1.105   3.732   2.965
   53Am      HC 3432   0.949   3.628   3.210
   53Am      HC 3433   0.881   3.721   3.071
   53Am      HC 3434   1.000   3.800   3.181
   53Am      HC 3435   1.485   3.201   3.323
   53Am      HC 3436   1.316   3.256   3.355
   53Am      HC 3437   1.399   3.033   3.159
   53Am      HC 3438   1.326   3.010   3.322
   53Am      HC 3439   1.230   3.088   3.191
   53Am      HC 3440   1.924   3.310   3.026
   53Am      HC 3441   1.982   3.362   2.863
   53Am      HC 3442   1.974   3.482   2.997
   53Am      HC 3443   1.734   3.340   2.865
   53Am      HC 3444   1.785   3.511   2.836
   53Am      HC 3445   1.653   4.125   3.138
   53Am      HC 3446   1.519   4.075   3.028
   53Am      HC 3447   1.689   4.020   2.995
   53Am      HC 3448   1.687   3.889   3.209
   53Am      HC 3449   1.518   3.944   3.241
   54Am      N4 3450   3.350   1.697   2.410
   54Am     C1A 3451   3.411   1.617   2.522
   54Am     C1A 3452   3.366   1.627   2.278
   54Am     C1A 3453   3.419   1.831   2.395
   54Am     C1A 3454   3.205   1.715   2.445
   54Am      H1 3455   3.357   1.520   2.533
   54Am      H1 3456   3.396   1.668   2.619
   54Am      H1 3457   3.526   1.816   2.366
   54Am      H1 3458   3.375   1.887   2.310
   54Am      H1 3459   3.474   1.618   2.252
   54Am      H1 3460   3.324   1.689   2.196
   54Am      H1 3461   3.195   1.764   2.544
   54Am      H1 3462   3.157   1.616   2.459
   54Am      C2 3463   3.562   1.585   2.510
   54Am      C2 3464   3.303   1.486   2.267
   54Am      C2 3465   3.417   1.923   2.520
   54Am      C2 3466   3.119   1.796   2.344
   54Am      HC 3467   3.622   1.678   2.506
   54Am      HC 3468   3.582   1.525   2.418
   54Am      HC 3469   3.348   1.417   2.341
   54Am      HC 3470   3.193   1.491   2.283
   54Am      HC 3471   3.468   1.874   2.605
   54Am      HC 3472   3.313   1.948   2.548
   54Am      HC 3473   3.118   1.746   2.245
   54Am      HC 3474   3.158   1.899   2.334
   54Am      CS 3475   3.610   1.503   2.630
   54Am      CS 3476   3.326   1.427   2.127
   54Am      CS 3477   3.491   2.054   2.490
   54Am      CS 3478   2.974   1.806   2.393
   54Am      CT 3479   3.759   1.470   2.619
   54Am      CT 3480   3.265   1.288   2.115
   54Am      CT 3481   3.490   2.147   2.611
   54Am      CT 3482   2.888   1.885   2.295
   54Am      HC 3483   3.553   1.407   2.635
   54Am      HC 3484   3.592   1.560   2.724
   54Am      HC 3485   3.779   1.411   2.528
   54Am      HC 3486   3.790   1.411   2.708
   54Am      HC 3487   3.818   1.563   2.616
   54Am      HC 3488   3.281   1.493   2.050
   54Am      HC 3489   3.436   1.419   2.108
   54Am      HC 3490   3.155   1.293   2.131
   54Am      HC 3491   3.283   1.248   2.013
   54Am      HC 3492   3.310   1.219   2.189
   54Am      HC 3493   2.887   1.835   2.195
   54Am      HC 3494   2.784   1.890   2.333
   54Am      HC 3495   2.927   1.988   2.284
   54Am      HC 3496   2.931   1.704   2.404
   54Am      HC 3497   2.971   1.856   2.492
   54Am      HC 3498   3.544   2.241   2.587
   54Am      HC 3499   3.541   2.098   2.697
   54Am      HC 3500   3.386   2.172   2.640
   54Am      HC 3501   3.442   2.107   2.405
   54Am      HC 3502   3.597   2.033   2.462
   55Am      N4 3503   3.966   3.220   1.556
   55Am     C1A 3504   4.048   3.313   1.470
   55Am     C1A 3505   3.946   3.277   1.694
   55Am     C1A 3506   4.036   3.088   1.575
   55Am     C1A 3507   3.834   3.203   1.485
   55Am      H1 3508   3.994   3.409   1.455
   55Am      H1 3509   4.059   3.271   1.368
   55Am      H1 3510   4.131   3.102   1.630
   55Am      H1 3511   3.975   3.022   1.641
   55Am      H1 3512   4.044   3.286   1.746
   55Am      H1 3513   3.889   3.206   1.757
   55Am      H1 3514   3.851   3.164   1.382
   55Am      H1 3515   3.786   3.302   1.469
   55Am      C2 3516   4.190   3.347   1.522
   55Am      C2 3517   3.876   3.415   1.702
   55Am      C2 3518   4.068   3.008   1.446
   55Am      C2 3519   3.731   3.111   1.554
   55Am      HC 3520   4.251   3.255   1.531
   55Am      HC 3521   4.184   3.397   1.621
   55Am      HC 3522   3.934   3.492   1.648
   55Am      HC 3523   3.774   3.409   1.659
   55Am      HC 3524   4.135   3.067   1.380
   55Am      HC 3525   3.975   2.984   1.391
   55Am      HC 3526   3.704   3.150   1.654
   55Am      HC 3527   3.771   3.008   1.564
   55Am      CS 3528   4.261   3.442   1.425
   55Am      CS 3529   3.862   3.460   1.849
   55Am      CS 3530   4.138   2.876   1.480
   55Am      CS 3531   3.602   3.103   1.471
   55Am      CT 3532   4.402   3.477   1.475
   55Am      CT 3533   3.793   3.596   1.858
   55Am      CT 3534   4.171   2.797   1.354
   55Am      CT 3535   3.499   3.012   1.537
   55Am      HC 3536   4.203   3.536   1.415
   55Am      HC 3537   4.270   3.394   1.325
   55Am      HC 3538   4.396   3.527   1.574
   55Am      HC 3539   4.451   3.545   1.403
   55Am      HC 3540   4.463   3.385   1.484
   55Am      HC 3541   3.803   3.385   1.906
   55Am      HC 3542   3.964   3.468   1.894
   55Am      HC 3543   3.691   3.590   1.815
   55Am      HC 3544   3.785   3.625   1.965
   55Am      HC 3545   3.852   3.673   1.804
   55Am      HC 3546   3.472   3.052   1.638
   55Am      HC 3547   3.407   3.008   1.475
   55Am      HC 3548   3.539   2.909   1.548
   55Am      HC 3549   3.559   3.204   1.459
   55Am      HC 3550   3.625   3.062   1.370
   55Am      HC 3551   4.221   2.702   1.382
   55Am      HC 3552   4.238   2.855   1.288
   55Am      HC 3553   4.078   2.772   1.299
   55Am      HC 3554   4.073   2.815   1.545
   55Am      HC 3555   4.233   2.898   1.535
   56Am      N4 3556   2.426   3.553   2.205
   56Am     C1A 3557   2.353   3.451   2.289
   56Am     C1A 3558   2.411   3.523   2.059
   56Am     C1A 3559   2.573   3.551   2.234
   56Am     C1A 3560   2.365   3.687   2.240
   56Am      H1 3561   2.244   3.456   2.269
   56Am      H1 3562   2.362   3.476   2.397
   56Am      H1 3563   2.617   3.453   2.204
   56Am      H1 3564   2.626   3.624   2.169
   56Am      H1 3565   2.458   3.426   2.034
   56Am      H1 3566   2.468   3.597   1.999
   56Am      H1 3567   2.374   3.705   2.350
   56Am      H1 3568   2.256   3.685   2.222
   56Am      C2 3569   2.397   3.303   2.272
   56Am      C2 3570   2.266   3.520   2.004
   56Am      C2 3571   2.616   3.579   2.380
   56Am      C2 3572   2.424   3.810   2.167
   56Am      HC 3573   2.504   3.291   2.299
   56Am      HC 3574   2.381   3.270   2.167
   56Am      HC 3575   2.207   3.441   2.055
   56Am      HC 3576   2.216   3.618   2.018
   56Am      HC 3577   2.573   3.502   2.448
   56Am      HC 3578   2.582   3.680   2.412
   56Am      HC 3579   2.409   3.800   2.057
   56Am      HC 3580   2.532   3.820   2.189
   56Am      CS 3581   2.315   3.211   2.363
   56Am      CS 3582   2.266   3.489   1.853
   56Am      CS 3583   2.769   3.573   2.394
   56Am      CS 3584   2.353   3.938   2.212
   56Am      CT 3585   2.357   3.066   2.346
   56Am      CT 3586   2.124   3.485   1.798
   56Am      CT 3587   2.812   3.601   2.538
   56Am      CT 3588   2.409   4.060   2.140
   56Am      HC 3589   2.207   3.220   2.337
   56Am      HC 3590   2.329   3.241   2.469
   56Am      HC 3591   2.341   3.032   2.242
   56Am      HC 3592   2.296   3.001   2.414
   56Am      HC 3593   2.464   3.053   2.374
   56Am      HC 3594   2.324   3.567   1.799
   56Am      HC 3595   2.314   3.390   1.836
   56Am      HC 3596   2.074   3.583   1.812
   56Am      HC 3597   2.127   3.462   1.689
   56Am      HC 3598   2.065   3.406   1.848
   56Am      HC 3599   2.395   4.051   2.031
   56Am      HC 3600   2.357   4.152   2.175
   56Am      HC 3601   2.518   4.072   2.162
   56Am      HC 3602   2.244   3.931   2.190
   56Am      HC 3603   2.367   3.951   2.322
   56Am      HC 3604   2.923   3.596   2.545
   56Am      HC 3605   2.769   3.524   2.606
   56Am      HC 3606   2.779   3.701   2.570
   56Am      HC 3607   2.815   3.650   2.328
   56Am      HC 3608   2.806   3.473   2.364
   57Am      N4 3609   0.087   3.260   1.583
   57Am     C1A 3610   0.049   3.202   1.717
   57Am     C1A 3611  -0.004   3.374   1.545
   57Am     C1A 3612   0.073   3.157   1.474
   57Am     C1A 3613   0.230   3.306   1.597
   57Am      H1 3614   0.062   3.278   1.797
   57Am      H1 3615   0.119   3.120   1.745
   57Am      H1 3616  -0.033   3.126   1.463
   57Am      H1 3617   0.099   3.202   1.375
   57Am      H1 3618  -0.108   3.337   1.533
   57Am      H1 3619   0.023   3.413   1.445
   57Am      H1 3620   0.294   3.222   1.628
   57Am      H1 3621   0.238   3.379   1.680
   57Am      C2 3622  -0.095   3.146   1.729
   57Am      C2 3623  -0.008   3.494   1.643
   57Am      C2 3624   0.158   3.028   1.490
   57Am      C2 3625   0.293   3.371   1.471
   57Am      HC 3626  -0.112   3.064   1.657
   57Am      HC 3627  -0.170   3.226   1.711
   57Am      HC 3628  -0.043   3.461   1.743
   57Am      HC 3629   0.092   3.540   1.653
   57Am      HC 3630   0.130   2.974   1.582
   57Am      HC 3631   0.266   3.053   1.492
   57Am      HC 3632   0.236   3.461   1.441
   57Am      HC 3633   0.295   3.298   1.387
   57Am      CS 3634  -0.120   3.091   1.870
   57Am      CS 3635  -0.105   3.602   1.592
   57Am      CS 3636   0.134   2.933   1.372
   57Am      CS 3637   0.438   3.413   1.499
   57Am      CT 3638  -0.262   3.036   1.884
   57Am      CT 3639  -0.110   3.721   1.687
   57Am      CT 3640   0.216   2.806   1.385
   57Am      CT 3641   0.502   3.477   1.376
   57Am      HC 3642  -0.106   3.172   1.945
   57Am      HC 3643  -0.047   3.009   1.892
   57Am      HC 3644  -0.336   3.116   1.866
   57Am      HC 3645  -0.276   2.997   1.987
   57Am      HC 3646  -0.278   2.953   1.812
   57Am      HC 3647  -0.071   3.637   1.492
   57Am      HC 3648  -0.207   3.559   1.582
   57Am      HC 3649  -0.009   3.767   1.697
   57Am      HC 3650  -0.180   3.797   1.647
   57Am      HC 3651  -0.145   3.689   1.787
   57Am      HC 3652   0.445   3.567   1.346
   57Am      HC 3653   0.606   3.506   1.400
   57Am      HC 3654   0.504   3.404   1.292
   57Am      HC 3655   0.440   3.486   1.583
   57Am      HC 3656   0.498   3.324   1.529
   57Am      HC 3657   0.197   2.739   1.299
   57Am      HC 3658   0.189   2.752   1.479
   57Am      HC 3659   0.325   2.830   1.388
   57Am      HC 3660   0.162   2.984   1.276
   57Am      HC 3661   0.026   2.906   1.367
   58Am      N4 3662   4.091   1.424   1.461
   58Am     C1A 3663   4.168   1.320   1.539
   58Am     C1A 3664   3.982   1.361   1.379
   58Am     C1A 3665   4.180   1.496   1.364
   58Am     C1A 3666   4.034   1.518   1.564
   58Am      H1 3667   4.101   1.269   1.612
   58Am      H1 3668   4.245   1.368   1.601
   58Am      H1 3669   4.219   1.426   1.288
   58Am      H1 3670   4.122   1.571   1.306
   58Am      H1 3671   4.026   1.294   1.302
   58Am      H1 3672   3.928   1.439   1.320
   58Am      H1 3673   4.115   1.561   1.626
   58Am      H1 3674   3.971   1.462   1.637
   58Am      C2 3675   4.237   1.209   1.455
   58Am      C2 3676   3.875   1.279   1.456
   58Am      C2 3677   4.302   1.571   1.425
   58Am      C2 3678   3.949   1.636   1.509
   58Am      HC 3679   4.311   1.254   1.386
   58Am      HC 3680   4.162   1.152   1.397
   58Am      HC 3681   3.923   1.195   1.510
   58Am      HC 3682   3.822   1.344   1.529
   58Am      HC 3683   4.369   1.499   1.477
   58Am      HC 3684   4.268   1.648   1.497
   58Am      HC 3685   3.861   1.598   1.453
   58Am      HC 3686   4.010   1.700   1.442
   58Am      CS 3687   4.311   1.111   1.546
   58Am      CS 3688   3.771   1.221   1.360
   58Am      CS 3689   4.384   1.640   1.315
   58Am      CS 3690   3.898   1.724   1.624
   58Am      CT 3691   4.380   1.001   1.465
   58Am      CT 3692   3.665   1.141   1.435
   58Am      CT 3693   4.504   1.713   1.373
   58Am      CT 3694   3.814   1.840   1.572
   58Am      HC 3695   4.239   1.063   1.616
   58Am      HC 3696   4.388   1.165   1.606
   58Am      HC 3697   4.306   0.944   1.407
   58Am      HC 3698   4.433   0.932   1.534
   58Am      HC 3699   4.455   1.046   1.396
   58Am      HC 3700   3.721   1.304   1.305
   58Am      HC 3701   3.821   1.155   1.286
   58Am      HC 3702   3.612   1.205   1.508
   58Am      HC 3703   3.591   1.100   1.362
   58Am      HC 3704   3.712   1.056   1.489
   58Am      HC 3705   3.726   1.802   1.516
   58Am      HC 3706   3.778   1.901   1.658
   58Am      HC 3707   3.875   1.904   1.505
   58Am      HC 3708   3.835   1.662   1.693
   58Am      HC 3709   3.984   1.764   1.682
   58Am      HC 3710   4.561   1.762   1.291
   58Am      HC 3711   4.571   1.642   1.426
   58Am      HC 3712   4.471   1.791   1.445
   58Am      HC 3713   4.319   1.713   1.261
   58Am      HC 3714   4.420   1.564   1.242
   59Am      N4 3715   2.386   3.898   2.929
   59Am     C1A 3716   2.407   4.001   2.821
   59Am     C1A 3717   2.507   3.889   3.020
   59Am     C1A 3718   2.368   3.761   2.870
   59Am     C1A 3719   2.264   3.941   3.006
   59Am      H1 3720   2.417   4.102   2.866
   59Am      H1 3721   2.316   4.009   2.758
   59Am      H1 3722   2.460   3.729   2.817
   59Am      H1 3723   2.356   3.686   2.951
   59Am      H1 3724   2.595   3.854   2.962
   59Am      H1 3725   2.491   3.810   3.096
   59Am      H1 3726   2.177   3.951   2.937
   59Am      H1 3727   2.278   4.044   3.045
   59Am      C2 3728   2.528   3.979   2.727
   59Am      C2 3729   2.547   4.019   3.093
   59Am      C2 3730   2.249   3.743   2.772
   59Am      C2 3731   2.221   3.851   3.124
   59Am      HC 3732   2.519   3.883   2.673
   59Am      HC 3733   2.623   3.979   2.785
   59Am      HC 3734   2.572   4.099   3.020
   59Am      HC 3735   2.465   4.054   3.159
   59Am      HC 3736   2.261   3.810   2.685
   59Am      HC 3737   2.153   3.766   2.823
   59Am      HC 3738   2.302   3.845   3.200
   59Am      HC 3739   2.197   3.749   3.088
   59Am      CS 3740   2.537   4.091   2.623
   59Am      CS 3741   2.671   3.995   3.181
   59Am      CS 3742   2.243   3.599   2.721
   59Am      CS 3743   2.096   3.907   3.192
   59Am      CT 3744   2.656   4.070   2.529
   59Am      CT 3745   2.712   4.123   3.254
   59Am      CT 3746   2.126   3.580   2.624
   59Am      CT 3747   2.052   3.819   3.309
   59Am      HC 3748   2.548   4.189   2.674
   59Am      HC 3749   2.444   4.093   2.562
   59Am      HC 3750   2.751   4.071   2.587
   59Am      HC 3751   2.659   4.153   2.455
   59Am      HC 3752   2.646   3.974   2.475
   59Am      HC 3753   2.648   3.917   3.256
   59Am      HC 3754   2.755   3.961   3.118
   59Am      HC 3755   2.629   4.158   3.320
   59Am      HC 3756   2.801   4.102   3.317
   59Am      HC 3757   2.737   4.203   3.182
   59Am      HC 3758   2.132   3.814   3.385
   59Am      HC 3759   1.961   3.862   3.356
   59Am      HC 3760   2.028   3.717   3.273
   59Am      HC 3761   2.117   4.010   3.230
   59Am      HC 3762   2.013   3.913   3.118
   59Am      HC 3763   2.124   3.475   2.588
   59Am      HC 3764   2.137   3.647   2.536
   59Am      HC 3765   2.030   3.602   2.675
   59Am      HC 3766   2.230   3.529   2.806
   59Am      HC 3767   2.337   3.574   2.668
   60Am      N4 3768   1.453   2.835   2.428
   60Am     C1A 3769   1.382   2.881   2.553
   60Am     C1A 3770   1.417   2.693   2.394
   60Am     C1A 3771   1.602   2.838   2.446
   60Am     C1A 3772   1.409   2.929   2.318
   60Am      H1 3773   1.272   2.882   2.536
   60Am      H1 3774   1.407   2.987   2.574
   60Am      H1 3775   1.633   2.766   2.524
   60Am      H1 3776   1.653   2.801   2.354
   60Am      H1 3777   1.453   2.625   2.475
   60Am      H1 3778   1.473   2.659   2.304
   60Am      H1 3779   1.433   3.034   2.346
   60Am      H1 3780   1.299   2.928   2.308
   60Am      C2 3781   1.410   2.800   2.681
   60Am      C2 3782   1.267   2.663   2.371
   60Am      C2 3783   1.665   2.976   2.481
   60Am      C2 3784   1.469   2.903   2.177
   60Am      HC 3785   1.518   2.804   2.707
   60Am      HC 3786   1.379   2.694   2.668
   60Am      HC 3787   1.208   2.687   2.462
   60Am      HC 3788   1.229   2.723   2.285
   60Am      HC 3789   1.624   3.013   2.577
   60Am      HC 3790   1.644   3.049   2.401
   60Am      HC 3791   1.440   2.802   2.141
   60Am      HC 3792   1.579   2.911   2.180
   60Am      CS 3793   1.332   2.858   2.800
   60Am      CS 3794   1.246   2.515   2.338
   60Am      CS 3795   1.817   2.963   2.496
   60Am      CS 3796   1.416   3.006   2.076
   60Am      CT 3797   1.359   2.779   2.928
   60Am      CT 3798   1.098   2.484   2.314
   60Am      CT 3799   1.880   3.098   2.531
   60Am      CT 3800   1.474   2.981   1.937
   60Am      HC 3801   1.223   2.855   2.778
   60Am      HC 3802   1.362   2.964   2.816
   60Am      HC 3803   1.328   2.673   2.915
   60Am      HC 3804   1.301   2.823   3.012
   60Am      HC 3805   1.467   2.783   2.953
   60Am      HC 3806   1.303   2.488   2.246
   60Am      HC 3807   1.282   2.452   2.422
   60Am      HC 3808   1.059   2.543   2.229
   60Am      HC 3809   1.086   2.376   2.291
   60Am      HC 3810   1.039   2.507   2.405
   60Am      HC 3811   1.445   2.880   1.901
   60Am      HC 3812   1.434   3.056   1.867
   60Am      HC 3813   1.584   2.989   1.939
   60Am      HC 3814   1.305   2.999   2.071
   60Am      HC 3815   1.444   3.108   2.109
   60Am      HC 3816   1.990   3.086   2.542
   60Am      HC 3817   1.839   3.136   2.627
   60Am      HC 3818   1.860   3.172   2.451
   60Am      HC 3819   1.861   2.927   2.401
   60Am      HC 3820   1.841   2.891   2.577
   61Am      N4 3821   1.573   3.947   2.409
   61Am     C1A 3822   1.475   3.933   2.523
   61Am     C1A 3823   1.684   4.042   2.444
   61Am     C1A 3824   1.506   4.003   2.286
   61Am     C1A 3825   1.627   3.808   2.382
   61Am      H1 3826   1.526   3.888   2.611
   61Am      H1 3827   1.396   3.860   2.497
   61Am      H1 3828   1.470   4.106   2.306
   61Am      H1 3829   1.580   4.015   2.204
   61Am      H1 3830   1.643   4.144   2.459
   61Am      H1 3831   1.753   4.054   2.357
   61Am      H1 3832   1.543   3.738   2.360
   61Am      H1 3833   1.673   3.767   2.475
   61Am      C2 3834   1.406   4.063   2.569
   61Am      C2 3835   1.770   4.006   2.568
   61Am      C2 3836   1.387   3.922   2.230
   61Am      C2 3837   1.731   3.795   2.269
   61Am      HC 3838   1.347   4.107   2.487
   61Am      HC 3839   1.480   4.137   2.605
   61Am      HC 3840   1.706   4.002   2.659
   61Am      HC 3841   1.820   3.908   2.553
   61Am      HC 3842   1.306   3.914   2.305
   61Am      HC 3843   1.419   3.820   2.200
   61Am      HC 3844   1.820   3.857   2.290
   61Am      HC 3845   1.687   3.827   2.172
   61Am      CS 3846   1.309   4.034   2.685
   61Am      CS 3847   1.878   4.112   2.591
   61Am      CS 3848   1.329   3.991   2.106
   61Am      CS 3849   1.776   3.649   2.253
   61Am      CT 3850   1.240   4.161   2.732
   61Am      CT 3851   1.964   4.078   2.713
   61Am      CT 3852   1.211   3.913   2.049
   61Am      CT 3853   1.879   3.635   2.141
   61Am      HC 3854   1.366   3.990   2.771
   61Am      HC 3855   1.232   3.961   2.652
   61Am      HC 3856   1.314   4.235   2.768
   61Am      HC 3857   1.171   4.137   2.816
   61Am      HC 3858   1.180   4.206   2.650
   61Am      HC 3859   1.944   4.118   2.502
   61Am      HC 3860   1.831   4.211   2.607
   61Am      HC 3861   2.014   3.980   2.699
   61Am      HC 3862   2.041   4.156   2.727
   61Am      HC 3863   1.900   4.073   2.804
   61Am      HC 3864   1.969   3.696   2.163
   61Am      HC 3865   1.910   3.528   2.133
   61Am      HC 3866   1.835   3.667   2.044
   61Am      HC 3867   1.822   3.614   2.348
   61Am      HC 3868   1.688   3.585   2.230
   61Am      HC 3869   1.171   3.965   1.959
   61Am      HC 3870   1.130   3.905   2.124
   61Am      HC 3871   1.243   3.811   2.019
   61Am      HC 3872   1.407   4.000   2.027
   61Am      HC 3873   1.294   4.093   2.132
   62Am      N4 3874   4.097   2.699   3.004
   62Am     C1A 3875   3.997   2.811   3.017
   62Am     C1A 3876   4.033   2.565   3.031
   62Am     C1A 3877   4.208   2.714   3.105
   62Am     C1A 3878   4.151   2.706   2.864
   62Am      H1 3879   3.918   2.800   2.939
   62Am      H1 3880   4.045   2.908   2.993
   62Am      H1 3881   4.167   2.705   3.208
   62Am      H1 3882   4.279   2.629   3.097
   62Am      H1 3883   3.997   2.561   3.136
   62Am      H1 3884   4.109   2.485   3.025
   62Am      H1 3885   4.195   2.807   2.845
   62Am      H1 3886   4.068   2.699   2.790
   62Am      C2 3887   3.926   2.825   3.154
   62Am      C2 3888   3.915   2.526   2.939
   62Am      C2 3889   4.290   2.845   3.099
   62Am      C2 3890   4.257   2.601   2.825
   62Am      HC 3891   4.001   2.845   3.234
   62Am      HC 3892   3.869   2.733   3.178
   62Am      HC 3893   3.832   2.599   2.948
   62Am      HC 3894   3.948   2.521   2.833
   62Am      HC 3895   4.224   2.933   3.115
   62Am      HC 3896   4.340   2.855   3.000
   62Am      HC 3897   4.215   2.498   2.834
   62Am      HC 3898   4.346   2.610   2.890
   62Am      CS 3899   3.828   2.942   3.152
   62Am      CS 3900   3.860   2.388   2.978
   62Am      CS 3901   4.398   2.846   3.207
   62Am      CS 3902   4.302   2.620   2.680
   62Am      CT 3903   3.757   2.958   3.286
   62Am      CT 3904   3.744   2.348   2.888
   62Am      CT 3905   4.480   2.975   3.202
   62Am      CT 3906   4.407   2.516   2.640
   62Am      HC 3907   3.751   2.925   3.073
   62Am      HC 3908   3.882   3.037   3.129
   62Am      HC 3909   3.700   2.866   3.311
   62Am      HC 3910   3.687   3.043   3.282
   62Am      HC 3911   3.832   2.977   3.367
   62Am      HC 3912   3.941   2.312   2.969
   62Am      HC 3913   3.825   2.390   3.083
   62Am      HC 3914   3.776   2.342   2.782
   62Am      HC 3915   3.706   2.247   2.918
   62Am      HC 3916   3.661   2.421   2.897
   62Am      HC 3917   4.365   2.414   2.649
   62Am      HC 3918   4.438   2.533   2.535
   62Am      HC 3919   4.497   2.525   2.705
   62Am      HC 3920   4.215   2.610   2.612
   62Am      HC 3921   4.346   2.721   2.667
   62Am      HC 3922   4.558   2.973   3.282
   62Am      HC 3923   4.415   3.063   3.219
   62Am      HC 3924   4.531   2.985   3.104
   62Am      HC 3925   4.467   2.760   3.193
   62Am      HC 3926   4.351   2.838   3.308
   63Am      N4 3927  -0.058   2.156   2.064
   63Am     C1A 3928  -0.166   2.106   2.156
   63Am     C1A 3929   0.029   2.043   2.016
   63Am     C1A 3930   0.034   2.253   2.135
   63Am     C1A 3931  -0.128   2.223   1.948
   63Am      H1 3932  -0.234   2.038   2.101
   63Am      H1 3933  -0.231   2.191   2.187
   63Am      H1 3934   0.087   2.201   2.217
   63Am      H1 3935   0.115   2.286   2.066
   63Am      H1 3936   0.083   1.997   2.102
   63Am      H1 3937   0.111   2.082   1.951
   63Am      H1 3938  -0.195   2.304   1.986
   63Am      H1 3939  -0.198   2.151   1.900
   63Am      C2 3940  -0.119   2.033   2.284
   63Am      C2 3941  -0.042   1.929   1.939
   63Am      C2 3942  -0.033   2.380   2.194
   63Am      C2 3943  -0.038   2.283   1.838
   63Am      HC 3944  -0.057   2.101   2.347
   63Am      HC 3945  -0.060   1.943   2.258
   63Am      HC 3946  -0.119   1.881   2.003
   63Am      HC 3947  -0.090   1.968   1.847
   63Am      HC 3948  -0.109   2.352   2.269
   63Am      HC 3949  -0.081   2.440   2.114
   63Am      HC 3950   0.024   2.204   1.791
   63Am      HC 3951   0.028   2.362   1.880
   63Am      CS 3952  -0.239   1.989   2.368
   63Am      CS 3953   0.059   1.821   1.897
   63Am      CS 3954   0.072   2.468   2.262
   63Am      CS 3955  -0.123   2.347   1.727
   63Am      CT 3956  -0.195   1.916   2.495
   63Am      CT 3957  -0.010   1.708   1.821
   63Am      CT 3958   0.008   2.594   2.321
   63Am      CT 3959  -0.035   2.407   1.618
   63Am      HC 3960  -0.303   1.920   2.308
   63Am      HC 3961  -0.300   2.077   2.397
   63Am      HC 3962  -0.136   1.826   2.469
   63Am      HC 3963  -0.284   1.885   2.553
   63Am      HC 3964  -0.133   1.984   2.558
   63Am      HC 3965   0.137   1.866   1.832
   63Am      HC 3966   0.108   1.779   1.987
   63Am      HC 3967  -0.058   1.747   1.729
   63Am      HC 3968   0.066   1.632   1.792
   63Am      HC 3969  -0.087   1.660   1.885
   63Am      HC 3970   0.027   2.328   1.571
   63Am      HC 3971  -0.100   2.452   1.539
   63Am      HC 3972   0.031   2.486   1.660
   63Am      HC 3973  -0.189   2.270   1.682
   63Am      HC 3974  -0.186   2.428   1.771
   63Am      HC 3975   0.086   2.656   2.370
   63Am      HC 3976  -0.068   2.566   2.397
   63Am      HC 3977  -0.040   2.654   2.241
   63Am      HC 3978   0.149   2.499   2.188
   63Am      HC 3979   0.121   2.411   2.344
   64Am      N4 3980   2.916   0.966   2.349
   64Am     C1A 3981   3.063   0.942   2.322
   64Am     C1A 3982   2.890   0.987   2.495
   64Am     C1A 3983   2.834   0.847   2.308
   64Am     C1A 3984   2.879   1.088   2.269
   64Am      H1 3985   3.122   1.032   2.350
   64Am      H1 3986   3.081   0.930   2.213
   64Am      H1 3987   2.861   0.759   2.370
   64Am      H1 3988   2.727   0.865   2.331
   64Am      H1 3989   2.915   0.895   2.552
   64Am      H1 3990   2.782   1.001   2.513
   64Am      H1 3991   2.902   1.072   2.161
   64Am      H1 3992   2.943   1.174   2.298
   64Am      C2 3993   3.127   0.821   2.394
   64Am      C2 3994   2.964   1.105   2.562
   64Am      C2 3995   2.843   0.804   2.159
   64Am      C2 3996   2.731   1.134   2.279
   64Am      HC 3997   3.077   0.727   2.363
   64Am      HC 3998   3.119   0.832   2.504
   64Am      HC 3999   3.074   1.092   2.555
   64Am      HC 4000   2.936   1.201   2.514
   64Am      HC 4001   2.948   0.777   2.133
   64Am      HC 4002   2.809   0.886   2.093
   64Am      HC 4003   2.706   1.160   2.384
   64Am      HC 4004   2.663   1.055   2.243
   64Am      CS 4005   3.275   0.809   2.358
   64Am      CS 4006   2.928   1.114   2.711
   64Am      CS 4007   2.754   0.682   2.132
   64Am      CS 4008   2.708   1.259   2.193
   64Am      CT 4009   3.340   0.689   2.428
   64Am      CT 4010   3.001   1.231   2.779
   64Am      CT 4011   2.763   0.639   1.986
   64Am      CT 4012   2.563   1.306   2.202
   64Am      HC 4013   3.329   0.901   2.389
   64Am      HC 4014   3.286   0.796   2.248
   64Am      HC 4015   3.332   0.700   2.538
   64Am      HC 4016   3.447   0.683   2.400
   64Am      HC 4017   3.290   0.595   2.397
   64Am      HC 4018   2.819   1.129   2.722
   64Am      HC 4019   2.957   1.020   2.762
   64Am      HC 4020   2.972   1.327   2.731
   64Am      HC 4021   2.973   1.235   2.886
   64Am      HC 4022   3.111   1.217   2.771
   64Am      HC 4023   2.537   1.332   2.307
   64Am      HC 4024   2.549   1.396   2.138
   64Am      HC 4025   2.494   1.226   2.166
   64Am      HC 4026   2.774   1.341   2.227
   64Am      HC 4027   2.731   1.236   2.087
   64Am      HC 4028   2.697   0.550   1.970
   64Am      HC 4029   2.867   0.611   1.960
   64Am      HC 4030   2.729   0.721   1.919
   64Am      HC 4031   2.649   0.707   2.156
   64Am      HC 4032   2.787   0.597   2.197
   65Am      N4 4033   2.479   3.008   3.016
   65Am     C1A 4034   2.381   2.931   3.101
   65Am     C1A 4035   2.444   3.155   3.012
   65Am     C1A 4036   2.476   2.960   2.873
   65Am     C1A 4037   2.615   2.986   3.078
   65Am      H1 4038   2.387   2.966   3.207
   65Am      H1 4039   2.410   2.824   3.106
   65Am      H1 4040   2.377   2.980   2.828
   65Am      H1 4041   2.547   3.019   2.812
   65Am      H1 4042   2.346   3.169   2.963
   65Am      H1 4043   2.516   3.209   2.946
   65Am      H1 4044   2.637   2.877   3.084
   65Am      H1 4045   2.614   3.019   3.184
   65Am      C2 4046   2.233   2.938   3.058
   65Am      C2 4047   2.441   3.228   3.148
   65Am      C2 4048   2.509   2.810   2.851
   65Am      C2 4049   2.734   3.056   3.009
   65Am      HC 4050   2.220   2.896   2.956
   65Am      HC 4051   2.196   3.042   3.059
   65Am      HC 4052   2.364   3.183   3.214
   65Am      HC 4053   2.540   3.224   3.197
   65Am      HC 4054   2.436   2.746   2.904
   65Am      HC 4055   2.612   2.787   2.886
   65Am      HC 4056   2.721   3.165   3.008
   65Am      HC 4057   2.745   3.019   2.904
   65Am      CS 4058   2.145   2.855   3.153
   65Am      CS 4059   2.404   3.376   3.128
   65Am      CS 4060   2.503   2.776   2.701
   65Am      CS 4061   2.865   3.024   3.082
   65Am      CT 4062   1.998   2.861   3.111
   65Am      CT 4063   2.400   3.450   3.261
   65Am      CT 4064   2.534   2.628   2.677
   65Am      CT 4065   2.984   3.092   3.015
   65Am      HC 4066   2.154   2.895   3.256
   65Am      HC 4067   2.178   2.750   3.152
   65Am      HC 4068   1.961   2.965   3.113
   65Am      HC 4069   1.937   2.800   3.182
   65Am      HC 4070   1.985   2.819   3.009
   65Am      HC 4071   2.479   3.425   3.062
   65Am      HC 4072   2.304   3.384   3.080
   65Am      HC 4073   2.499   3.446   3.311
   65Am      HC 4074   2.373   3.557   3.244
   65Am      HC 4075   2.324   3.405   3.328
   65Am      HC 4076   2.971   3.203   3.014
   65Am      HC 4077   3.077   3.068   3.070
   65Am      HC 4078   2.995   3.056   2.910
   65Am      HC 4079   2.858   3.061   3.187
   65Am      HC 4080   2.882   2.915   3.083
   65Am      HC 4081   2.529   2.606   2.568
   65Am      HC 4082   2.461   2.564   2.730
   65Am      HC 4083   2.637   2.605   2.713
   65Am      HC 4084   2.576   2.838   2.645
   65Am      HC 4085   2.401   2.797   2.662
   66Am      N4 4086   0.233   0.022   1.778
   66Am     C1A 4087   0.148  -0.087   1.839
   66Am     C1A 4088   0.292   0.110   1.886
   66Am     C1A 4089   0.151   0.112   1.690
   66Am     C1A 4090   0.341  -0.048   1.700
   66Am      H1 4091   0.210  -0.155   1.901
   66Am      H1 4092   0.108  -0.153   1.758
   66Am      H1 4093   0.075   0.166   1.750
   66Am      H1 4094   0.215   0.194   1.649
   66Am      H1 4095   0.212   0.163   1.940
   66Am      H1 4096   0.352   0.191   1.839
   66Am      H1 4097   0.295  -0.115   1.623
   66Am      H1 4098   0.398  -0.117   1.766
   66Am      C2 4099   0.028  -0.040   1.925
   66Am      C2 4100   0.382   0.039   1.990
   66Am      C2 4101   0.079   0.045   1.571
   66Am      C2 4102   0.443   0.043   1.627
   66Am      HC 4103  -0.042   0.021   1.865
   66Am      HC 4104   0.064   0.019   2.012
   66Am      HC 4105   0.324  -0.038   2.046
   66Am      HC 4106   0.469  -0.008   1.941
   66Am      HC 4107   0.007  -0.031   1.607
   66Am      HC 4108   0.152  -0.002   1.503
   66Am      HC 4109   0.498   0.106   1.701
   66Am      HC 4110   0.392   0.108   1.554
   66Am      CS 4111  -0.049  -0.161   1.979
   66Am      CS 4112   0.435   0.141   2.093
   66Am      CS 4113   0.000   0.149   1.490
   66Am      CS 4114   0.547  -0.042   1.552
   66Am      CT 4115  -0.168  -0.117   2.065
   66Am      CT 4116   0.524   0.073   2.197
   66Am      CT 4117  -0.072   0.085   1.372
   66Am      CT 4118   0.648   0.047   1.480
   66Am      HC 4119   0.018  -0.224   2.041
   66Am      HC 4120  -0.087  -0.222   1.895
   66Am      HC 4121  -0.132  -0.058   2.152
   66Am      HC 4122  -0.222  -0.206   2.103
   66Am      HC 4123  -0.238  -0.056   2.005
   66Am      HC 4124   0.495   0.219   2.040
   66Am      HC 4125   0.350   0.190   2.145
   66Am      HC 4126   0.611   0.025   2.148
   66Am      HC 4127   0.561   0.148   2.269
   66Am      HC 4128   0.466  -0.004   2.252
   66Am      HC 4129   0.703   0.110   1.553
   66Am      HC 4130   0.721  -0.017   1.426
   66Am      HC 4131   0.597   0.112   1.406
   66Am      HC 4132   0.600  -0.108   1.623
   66Am      HC 4133   0.495  -0.105   1.477
   66Am      HC 4134  -0.128   0.162   1.316
   66Am      HC 4135  -0.144   0.008   1.408
   66Am      HC 4136   0.001   0.037   1.304
   66Am      HC 4137   0.070   0.227   1.452
   66Am      HC 4138  -0.075   0.198   1.556
   67Am      N4 4139   3.284   0.835   3.044
   67Am     C1A 4140   3.329   0.892   2.912
   67Am     C1A 4141   3.281   0.942   3.151
   67Am     C1A 4142   3.379   0.729   3.094
   67Am     C1A 4143   3.146   0.778   3.021
   67Am      H1 4144   3.256   0.967   2.876
   67Am      H1 4145   3.328   0.812   2.834
   67Am      H1 4146   3.479   0.774   3.114
   67Am      H1 4147   3.346   0.691   3.193
   67Am      H1 4148   3.384   0.980   3.169
   67Am      H1 4149   3.251   0.898   3.248
   67Am      H1 4150   3.150   0.702   2.940
   67Am      H1 4151   3.079   0.857   2.981
   67Am      C2 4152   3.470   0.957   2.910
   67Am      C2 4153   3.189   1.064   3.123
   67Am      C2 4154   3.400   0.607   3.001
   67Am      C2 4155   3.077   0.714   3.143
   67Am      HC 4156   3.548   0.883   2.937
   67Am      HC 4157   3.474   1.042   2.980
   67Am      HC 4158   3.221   1.116   3.031
   67Am      HC 4159   3.084   1.031   3.113
   67Am      HC 4160   3.441   0.639   2.903
   67Am      HC 4161   3.304   0.554   2.985
   67Am      HC 4162   3.063   0.788   3.224
   67Am      HC 4163   3.137   0.628   3.181
   67Am      CS 4164   3.502   1.009   2.769
   67Am      CS 4165   3.196   1.163   3.240
   67Am      CS 4166   3.499   0.508   3.064
   67Am      CS 4167   2.938   0.660   3.104
   67Am      CT 4168   3.641   1.074   2.765
   67Am      CT 4169   3.106   1.284   3.214
   67Am      CT 4170   3.521   0.387   2.974
   67Am      CT 4171   2.868   0.596   3.224
   67Am      HC 4172   3.427   1.085   2.739
   67Am      HC 4173   3.500   0.925   2.697
   67Am      HC 4174   3.645   1.160   2.836
   67Am      HC 4175   3.661   1.111   2.663
   67Am      HC 4176   3.719   1.000   2.793
   67Am      HC 4177   3.164   1.114   3.334
   67Am      HC 4178   3.301   1.199   3.252
   67Am      HC 4179   3.000   1.252   3.204
   67Am      HC 4180   3.113   1.354   3.300
   67Am      HC 4181   3.138   1.337   3.122
   67Am      HC 4182   2.854   0.670   3.305
   67Am      HC 4183   2.769   0.558   3.193
   67Am      HC 4184   2.928   0.511   3.262
   67Am      HC 4185   2.875   0.743   3.066
   67Am      HC 4186   2.949   0.584   3.024
   67Am      HC 4187   3.592   0.317   3.022
   67Am      HC 4188   3.562   0.419   2.876
   67Am      HC 4189   3.425   0.333   2.957
   67Am      HC 4190   3.459   0.473   3.162
   67Am      HC 4191   3.597   0.558   3.081
   68Am      N4 4192   0.207   2.257   2.853
   68Am     C1A 4193   0.125   2.384   2.858
   68Am     C1A 4194   0.147   2.151   2.943
   68Am     C1A 4195   0.347   2.281   2.903
   68Am     C1A 4196   0.207   2.213   2.709
   68Am      H1 4197   0.023   2.365   2.818
   68Am      H1 4198   0.168   2.460   2.789
   68Am      H1 4199   0.345   2.310   3.010
   68Am      H1 4200   0.404   2.186   2.902
   68Am      H1 4201   0.151   2.184   3.049
   68Am      H1 4202   0.211   2.060   2.941
   68Am      H1 4203   0.248   2.293   2.644
   68Am      H1 4204   0.103   2.199   2.673
   68Am      C2 4205   0.110   2.451   2.997
   68Am      C2 4206   0.002   2.109   2.912
   68Am      C2 4207   0.430   2.387   2.827
   68Am      C2 4208   0.285   2.082   2.678
   68Am      HC 4209   0.209   2.479   3.037
   68Am      HC 4210   0.059   2.382   3.067
   68Am      HC 4211  -0.067   2.195   2.921
   68Am      HC 4212  -0.005   2.067   2.809
   68Am      HC 4213   0.381   2.486   2.832
   68Am      HC 4214   0.442   2.357   2.720
   68Am      HC 4215   0.242   1.997   2.734
   68Am      HC 4216   0.392   2.094   2.704
   68Am      CS 4217   0.025   2.578   2.986
   68Am      CS 4218  -0.045   2.001   3.010
   68Am      CS 4219   0.570   2.400   2.888
   68Am      CS 4220   0.276   2.050   2.528
   68Am      CT 4221   0.009   2.645   3.122
   68Am      CT 4222  -0.188   1.958   2.981
   68Am      CT 4223   0.653   2.504   2.814
   68Am      CT 4224   0.353   1.922   2.495
   68Am      HC 4225  -0.076   2.553   2.946
   68Am      HC 4226   0.074   2.650   2.916
   68Am      HC 4227  -0.042   2.577   3.193
   68Am      HC 4228  -0.053   2.737   3.111
   68Am      HC 4229   0.108   2.674   3.163
   68Am      HC 4230   0.021   1.912   3.003
   68Am      HC 4231  -0.040   2.040   3.114
   68Am      HC 4232  -0.196   1.915   2.879
   68Am      HC 4233  -0.219   1.880   3.054
   68Am      HC 4234  -0.257   2.044   2.990
   68Am      HC 4235   0.310   1.836   2.551
   68Am      HC 4236   0.345   1.900   2.386
   68Am      HC 4237   0.460   1.933   2.522
   68Am      HC 4238   0.170   2.036   2.499
   68Am      HC 4239   0.320   2.133   2.469
   68Am      HC 4240   0.754   2.511   2.861
   68Am      HC 4241   0.604   2.604   2.819
   68Am      HC 4242   0.666   2.475   2.708
   68Am      HC 4243   0.623   2.302   2.883
   68Am      HC 4244   0.561   2.430   2.995
   69Am      N4 4245   0.056   0.779   2.609
   69Am     C1A 4246  -0.045   0.668   2.604
   69Am     C1A 4247   0.196   0.726   2.594
   69Am     C1A 4248   0.052   0.850   2.742
   69Am     C1A 4249   0.021   0.873   2.497
   69Am      H1 4250  -0.043   0.619   2.504
   69Am      H1 4251  -0.148   0.709   2.612
   69Am      H1 4252   0.082   0.780   2.824
   69Am      H1 4253   0.130   0.929   2.746
   69Am      H1 4254   0.221   0.659   2.680
   69Am      H1 4255   0.270   0.809   2.602
   69Am      H1 4256  -0.083   0.909   2.508
   69Am      H1 4257   0.021   0.818   2.400
   69Am      C2 4258  -0.031   0.557   2.711
   69Am      C2 4259   0.226   0.648   2.464
   69Am      C2 4260  -0.083   0.914   2.782
   69Am      C2 4261   0.112   0.997   2.480
   69Am      HC 4262  -0.041   0.600   2.813
   69Am      HC 4263   0.067   0.506   2.702
   69Am      HC 4264   0.161   0.558   2.456
   69Am      HC 4265   0.211   0.713   2.375
   69Am      HC 4266  -0.162   0.837   2.789
   69Am      HC 4267  -0.112   0.992   2.708
   69Am      HC 4268   0.217   0.967   2.461
   69Am      HC 4269   0.109   1.060   2.572
   69Am      CS 4270  -0.141   0.451   2.694
   69Am      CS 4271   0.372   0.600   2.462
   69Am      CS 4272  -0.072   0.983   2.919
   69Am      CS 4273   0.065   1.083   2.362
   69Am      CT 4274  -0.128   0.341   2.799
   69Am      CT 4275   0.403   0.523   2.334
   69Am      CT 4276  -0.204   1.047   2.960
   69Am      CT 4277   0.153   1.206   2.345
   69Am      HC 4278  -0.133   0.405   2.593
   69Am      HC 4279  -0.241   0.498   2.704
   69Am      HC 4280  -0.030   0.290   2.790
   69Am      HC 4281  -0.209   0.266   2.784
   69Am      HC 4282  -0.138   0.383   2.901
   69Am      HC 4283   0.440   0.687   2.469
   69Am      HC 4284   0.390   0.533   2.549
   69Am      HC 4285   0.388   0.587   2.245
   69Am      HC 4286   0.509   0.489   2.336
   69Am      HC 4287   0.338   0.433   2.326
   69Am      HC 4288   0.258   1.176   2.325
   69Am      HC 4289   0.117   1.266   2.259
   69Am      HC 4290   0.150   1.270   2.436
   69Am      HC 4291   0.068   1.023   2.269
   69Am      HC 4292  -0.040   1.117   2.380
   69Am      HC 4293  -0.193   1.095   3.059
   69Am      HC 4294  -0.284   0.970   2.967
   69Am      HC 4295  -0.234   1.124   2.886
   69Am      HC 4296   0.007   1.061   2.915
   69Am      HC 4297  -0.043   0.908   2.996
4.262577 3.9376 10
