;
;	File was generated 
;	By user: Vladislav Ivanistsev
;	At date: Sun Mar  1 10:14:53 2015
;
; Include forcefield parameters

#define _FF_OPLS
#define _FF_OPLSAA

[ defaults ]
; nbfunc        comb-rule       gen-pairs       fudgeLJ fudgeQQ
1               3               yes             0.5     0.5

;;; LOAD ATOM TYPES
#include "/gpfs/helios/home/balong/Naribas/KAPPA/sysprep_Kappa/top/FSI_AtTy_OPLSAA.itp"
#include "/gpfs/helios/home/balong/Naribas/KAPPA/sysprep_Kappa/top/WA_AtTy.itp"
#include "/gpfs/helios/home/balong/Naribas/KAPPA/sysprep_Kappa/top/Gr_AtTy.itp"

;;; LOAD MOLECULES *.itp
#include "/gpfs/helios/home/balong/Naribas/KAPPA/sysprep_Kappa/top/FSI_OPLSAA.itp"
#include "/gpfs/helios/home/balong/Naribas/KAPPA/sysprep_Kappa/top/WA.itp"
#include "electrode_local.itp"

[ system ]                             
; Name                                 
Simulation of one electrode and n counter-ions
                                      
[ molecules ]
; Compound
 Gr 640 
 NS 111
