;
;	File was generated 
;	By user: Vladislav Ivanistsev
;	At date: Sun Mar  1 10:14:53 2015
;
; Include forcefield parameters

#define _FF_OPLS
#define _FF_OPLSAA

[ defaults ]
; nbfunc        comb-rule       gen-pairs       fudgeLJ fudgeQQ
1               3               yes             0.5     0.5

;;; LOAD ATOM TYPES
#include "SED_dir_systempreparation_SED/top/SED_ion_name_SED_AtTy_OPLSAA.itp"
#include "SED_dir_systempreparation_SED/top/Li+_AtTy_OPLSAA.itp"
#include "SED_dir_systempreparation_SED/top/WA_AtTy.itp"
#include "SED_dir_systempreparation_SED/top/SED_electrode_SED_AtTy.itp"

;;; LOAD MOLECULES *.itp
#include "SED_dir_systempreparation_SED/top/SED_ion_name_SED_OPLSAA.itp"
#include "SED_dir_systempreparation_SED/top/Li+_OPLSAA.itp"
#include "SED_dir_systempreparation_SED/top/WA.itp"
#include "electrode_local.itp"

[ system ]                             
; Name                                 
Simulation of one electrode and n counter-ions
                                      
[ molecules ]
; Compound
 SED_electrode_SED SED_electrodeatoms_SED 
 Li+ SED_ion_num_SED
 SED_ion_r_name_SED SED_ion_num_SED
