[ moleculetype ]
; name       nrexcl
AM2               3

[ atoms ]
;  nr   type  resnr  residu   atom   cgnr    charge
    1   N5        1  AM2      N5        1   -0.1500
    2   C1        1  AM2      C1        1   -0.1700
    3   H3        1  AM2      H3        1    0.3100
    4   H3        1  AM2      H3        1    0.3100
    5   H3        1  AM2      H3        1    0.3100
    6   CE        1  AM2      CE        1   -0.0500
    7   H1        1  AM2      H1        1    0.1300
    8   H1        1  AM2      H1        1    0.1300
    9   HC        1  AM2      HC        1    0.0600
   10   HC        1  AM2      HC        1    0.0600
   11   HC        1  AM2      HC        1    0.0600

[ bonds ]
;  ai    aj   func    b0        kb
    1     2      1    0.14480   319660.0
    2     6      1    0.15290   224200.0

[ constraints ]
;  ai    aj   func    b0
    1     3      1    0.10100
    1     4      1    0.10100
    1     5      1    0.10100
    2     7      1    0.10900
    2     8      1    0.10900
    6    10      1    0.10900
    6    11      1    0.10900
    6     9      1    0.10900

[ angles ]
;  ai    aj    ak   func    th0        cth
    2     1     3      1    109.500    292.900
    2     1     4      1    109.500    292.900
    2     1     5      1    109.500    292.900
    1     2     6      1    109.500    470.300
    1     2     7      1    109.500    292.900
    1     2     8      1    109.500    292.900
    6     2     7      1    110.700    313.800
    6     2     8      1    110.700    313.800
    7     2     8      1    107.800    276.100
    2     6    10      1    110.700    313.800
    2     6    11      1    110.700    313.800
   10     6    11      1    107.800    276.100
    2     6     9      1    110.700    313.800
   10     6     9      1    107.800    276.100
   11     6     9      1    107.800    276.100
    3     1     5      1    109.500    365.900
    3     1     4      1    109.500    365.900
    4     1     5      1    109.500    365.900

[ dihedrals ]
;  ai    aj    ak    al   func    coefficients
    3     1     2     6      5   -0.79500  -1.74470   1.74890   0.00000
    3     1     2     7      5    0.00000   0.00000   1.67360   0.00000
    3     1     2     8      5    0.00000   0.00000   1.67360   0.00000
    4     1     2     6      5   -0.79500  -1.74470   1.74890   0.00000
    4     1     2     7      5    0.00000   0.00000   1.67360   0.00000
    4     1     2     8      5    0.00000   0.00000   1.67360   0.00000
    5     1     2     6      5   -0.79500  -1.74470   1.74890   0.00000
    5     1     2     7      5    0.00000   0.00000   1.67360   0.00000
    5     1     2     8      5    0.00000   0.00000   1.67360   0.00000
    1     2     6    10      5   -4.23840  -2.96650   1.97900   0.00000
    1     2     6    11      5   -4.23840  -2.96650   1.97900   0.00000
    7     2     6    10      5    0.00000   0.00000   1.25520   0.00000
    7     2     6    11      5    0.00000   0.00000   1.25520   0.00000
    8     2     6    10      5    0.00000   0.00000   1.25520   0.00000
    8     2     6    11      5    0.00000   0.00000   1.25520   0.00000
    1     2     6     9      5   -4.23840  -2.96650   1.97900   0.00000
    7     2     6     9      5    0.00000   0.00000   1.25520   0.00000
    8     2     6     9      5    0.00000   0.00000   1.25520   0.00000

[ pairs ]
;   ai   aj   func
    3     6      1
    3     7      1
    3     8      1
    4     6      1
    4     7      1
    4     8      1
    5     6      1
    5     7      1
    5     8      1
    1    10      1
    1    11      1
    7    10      1
    7    11      1
    8    10      1
    8    11      1
    1     9      1
    7     9      1
    8     9      1
