[ moleculetype ]
; name       nrexcl
AM6               3

[ atoms ]
;  nr   type  resnr  residu   atom   cgnr    charge
    1   N5        1  AM6      N5        1   -0.1500
    2   C1        1  AM6      C1        1   -0.1700
    3   H3        1  AM6      H3        1    0.3100
    4   H3        1  AM6      H3        1    0.3100
    5   H3        1  AM6      H3        1    0.3100
    6   C2        1  AM6      C2        1    0.0100
    7   H1        1  AM6      H1        1    0.1300
    8   H1        1  AM6      H1        1    0.1300
    9   CS        1  AM6      CS        1   -0.1200
   10   HC        1  AM6      HC        1    0.0600
   11   HC        1  AM6      HC        1    0.0600
   12   CS        1  AM6      CS        1   -0.1200
   13   HC        1  AM6      HC        1    0.0600
   14   HC        1  AM6      HC        1    0.0600
   15   CS        1  AM6      CS        1   -0.1200
   16   HC        1  AM6      HC        1    0.0600
   17   HC        1  AM6      HC        1    0.0600
   18   CT        1  AM6      CT        1   -0.1800
   19   HC        1  AM6      HC        1    0.0600
   20   HC        1  AM6      HC        1    0.0600
   21   HC        1  AM6      HC        1    0.0600
   22   HC        1  AM6      HC        1    0.0600
   23   HC        1  AM6      HC        1    0.0600

[ bonds ]
;  ai    aj   func    b0        kb
    1     2      1    0.14480   319660.0
    2     6      1    0.15290   224200.0
    6     9      1    0.15290   224200.0
    9    12      1    0.15290   224200.0
   12    15      1    0.15290   224200.0
   15    18      1    0.15290   224200.0

[ constraints ]
;  ai    aj   func    b0
    1     3      1    0.10100
    1     4      1    0.10100
    1     5      1    0.10100
    2     7      1    0.10900
    2     8      1    0.10900
    6    10      1    0.10900
    6    11      1    0.10900
    9    13      1    0.10900
    9    14      1    0.10900
   12    16      1    0.10900
   12    17      1    0.10900
   15    19      1    0.10900
   15    20      1    0.10900
   18    22      1    0.10900
   18    23      1    0.10900
   18    21      1    0.10900

[ angles ]
;  ai    aj    ak   func    th0        cth
    2     1     3      1    109.500    292.900
    2     1     4      1    109.500    292.900
    2     1     5      1    109.500    292.900
    1     2     6      1    109.500    470.300
    1     2     7      1    109.500    292.900
    1     2     8      1    109.500    292.900
    6     2     7      1    110.700    313.800
    6     2     8      1    110.700    313.800
    7     2     8      1    107.800    276.100
    2     6     9      1    112.700    488.300
    2     6    10      1    110.700    313.800
    2     6    11      1    110.700    313.800
    9     6    10      1    110.700    313.800
    9     6    11      1    110.700    313.800
   10     6    11      1    107.800    276.100
    6     9    12      1    112.700    488.300
    6     9    13      1    110.700    313.800
    6     9    14      1    110.700    313.800
   12     9    13      1    110.700    313.800
   12     9    14      1    110.700    313.800
   13     9    14      1    107.800    276.100
    9    12    15      1    112.700    488.300
    9    12    16      1    110.700    313.800
    9    12    17      1    110.700    313.800
   15    12    16      1    110.700    313.800
   15    12    17      1    110.700    313.800
   16    12    17      1    107.800    276.100
   12    15    18      1    112.700    488.300
   12    15    19      1    110.700    313.800
   12    15    20      1    110.700    313.800
   18    15    19      1    110.700    313.800
   18    15    20      1    110.700    313.800
   19    15    20      1    107.800    276.100
   15    18    22      1    110.700    313.800
   15    18    23      1    110.700    313.800
   22    18    23      1    107.800    276.100
   15    18    21      1    110.700    313.800
   22    18    21      1    107.800    276.100
   22    18    21      1    107.800    276.100
    3     1     5      1    109.500    365.900
    3     1     4      1    109.500    365.900
    4     1     5      1    109.500    365.900

[ dihedrals ]
;  ai    aj    ak    al   func    coefficients
    3     1     2     6      5   -0.79500  -1.74470   1.74890   0.00000
    3     1     2     7      5    0.00000   0.00000   1.67360   0.00000
    3     1     2     8      5    0.00000   0.00000   1.67360   0.00000
    4     1     2     6      5   -0.79500  -1.74470   1.74890   0.00000
    4     1     2     7      5    0.00000   0.00000   1.67360   0.00000
    4     1     2     8      5    0.00000   0.00000   1.67360   0.00000
    5     1     2     6      5   -0.79500  -1.74470   1.74890   0.00000
    5     1     2     7      5    0.00000   0.00000   1.67360   0.00000
    5     1     2     8      5    0.00000   0.00000   1.67360   0.00000
    1     2     6     9      5   10.00810  -2.82000   2.30120   0.00000
    1     2     6    10      5   -4.23840  -2.96650   1.97900   0.00000
    1     2     6    11      5   -4.23840  -2.96650   1.97900   0.00000
    7     2     6     9      5    0.00000   0.00000   1.25520   0.00000
    7     2     6    10      5    0.00000   0.00000   1.25520   0.00000
    7     2     6    11      5    0.00000   0.00000   1.25520   0.00000
    8     2     6     9      5    0.00000   0.00000   1.25520   0.00000
    8     2     6    10      5    0.00000   0.00000   1.25520   0.00000
    8     2     6    11      5    0.00000   0.00000   1.25520   0.00000
    2     6     9    12      5    5.43920  -0.20920   0.83680   0.00000
    2     6     9    13      5    0.00000   0.00000   1.25520   0.00000
    2     6     9    14      5    0.00000   0.00000   1.25520   0.00000
   10     6     9    12      5    0.00000   0.00000   1.25520   0.00000
   10     6     9    13      5    0.00000   0.00000   1.25520   0.00000
   10     6     9    14      5    0.00000   0.00000   1.25520   0.00000
   11     6     9    12      5    0.00000   0.00000   1.25520   0.00000
   11     6     9    13      5    0.00000   0.00000   1.25520   0.00000
   11     6     9    14      5    0.00000   0.00000   1.25520   0.00000
    6     9    12    15      5    5.43920  -0.20920   0.83680   0.00000
    6     9    12    16      5    0.00000   0.00000   1.25520   0.00000
    6     9    12    17      5    0.00000   0.00000   1.25520   0.00000
   13     9    12    15      5    0.00000   0.00000   1.25520   0.00000
   13     9    12    16      5    0.00000   0.00000   1.25520   0.00000
   13     9    12    17      5    0.00000   0.00000   1.25520   0.00000
   14     9    12    15      5    0.00000   0.00000   1.25520   0.00000
   14     9    12    16      5    0.00000   0.00000   1.25520   0.00000
   14     9    12    17      5    0.00000   0.00000   1.25520   0.00000
    9    12    15    18      5    5.43920  -0.20920   0.83680   0.00000
    9    12    15    19      5    0.00000   0.00000   1.25520   0.00000
    9    12    15    20      5    0.00000   0.00000   1.25520   0.00000
   16    12    15    18      5    0.00000   0.00000   1.25520   0.00000
   16    12    15    19      5    0.00000   0.00000   1.25520   0.00000
   16    12    15    20      5    0.00000   0.00000   1.25520   0.00000
   17    12    15    18      5    0.00000   0.00000   1.25520   0.00000
   17    12    15    19      5    0.00000   0.00000   1.25520   0.00000
   17    12    15    20      5    0.00000   0.00000   1.25520   0.00000
   12    15    18    22      5    0.00000   0.00000   1.25520   0.00000
   12    15    18    23      5    0.00000   0.00000   1.25520   0.00000
   19    15    18    22      5    0.00000   0.00000   1.25520   0.00000
   19    15    18    23      5    0.00000   0.00000   1.25520   0.00000
   20    15    18    22      5    0.00000   0.00000   1.25520   0.00000
   20    15    18    23      5    0.00000   0.00000   1.25520   0.00000
   12    15    18    21      5    0.00000   0.00000   1.25520   0.00000
   19    15    18    21      5    0.00000   0.00000   1.25520   0.00000
   20    15    18    21      5    0.00000   0.00000   1.25520   0.00000

[ pairs ]
;   ai   aj   func
    3     6      1
    3     7      1
    3     8      1
    4     6      1
    4     7      1
    4     8      1
    5     6      1
    5     7      1
    5     8      1
    1     9      1
    1    10      1
    1    11      1
    7     9      1
    7    10      1
    7    11      1
    8     9      1
    8    10      1
    8    11      1
    2    12      1
    2    13      1
    2    14      1
   10    12      1
   10    13      1
   10    14      1
   11    12      1
   11    13      1
   11    14      1
    6    15      1
    6    16      1
    6    17      1
   13    15      1
   13    16      1
   13    17      1
   14    15      1
   14    16      1
   14    17      1
    9    18      1
    9    19      1
    9    20      1
   16    18      1
   16    19      1
   16    20      1
   17    18      1
   17    19      1
   17    20      1
   12    22      1
   12    23      1
   19    22      1
   19    23      1
   20    22      1
   20    23      1
   12    21      1
   19    21      1
   20    21      1
