[ moleculetype ]
; name       nrexcl
CCN               3

[ atoms ]
;  nr   type  resnr  residu   atom   cgnr    charge
    1   C3A       1  CCN      C3A       1   -0.9100
    2   CN        1  CCN      CN        1    0.6550
    3   CN        1  CCN      CN        1    0.6550
    4   CN        1  CCN      CN        1    0.6550
    5   NC        1  CCN      NC        1   -0.6850
    6   NC        1  CCN      NC        1   -0.6850
    7   NC        1  CCN      NC        1   -0.6850

[ bonds ]
;  ai    aj   func    b0        kb
    1     2      1    0.14120   334720.0
    1     3      1    0.14120   334720.0
    1     4      1    0.14120   334720.0
    2     7      1    0.11570   543920.0
    3     6      1    0.11570   543920.0
    4     5      1    0.11570   543920.0

[ constraints ]
;  ai    aj   func    b0

[ angles ]
;  ai    aj    ak   func    th0        cth
    2     1     3      1    120.000    585.800
    2     1     4      1    120.000    585.800
    3     1     4      1    120.000    585.800
    1     2     7      1    180.000   1255.200
    1     3     6      1    180.000   1255.200
    1     4     5      1    180.000   1255.200

[ dihedrals ]
;  ai    aj    ak    al   func    coefficients
    2     3     1     4      5    0.00000   9.20480   0.00000   0.00000
    5     4     1     2      5    0.00000   9.20480   0.00000   0.00000
    5     4     1     3      5    0.00000   9.20480   0.00000   0.00000
    6     3     1     2      5    0.00000   9.20480   0.00000   0.00000
    6     3     1     4      5    0.00000   9.20480   0.00000   0.00000
    7     2     1     3      5    0.00000   9.20480   0.00000   0.00000
    7     2     1     4      5    0.00000   9.20480   0.00000   0.00000

[ pairs ]
;   ai   aj   func

