[ moleculetype ]
;name            nrexcl
 G4               3

[ atoms ]
;   nr  type  resi  res  atom  cgnr     charge      mass       ; qtot   bond_type

     1   gh1     1   G4    H18    1     0.0375     1.008
     2   gc3     1   G4     C1    1     0.1375    12.011
     3   gh1     1   G4    H16    1     0.0375     1.008
     4   gh1     1   G4    H17    1     0.0375     1.008
     5   gos     1   G4     O2    1    -0.5000   15.9994
     6   gc3     1   G4     C3    1     0.1750    12.011
     7   gh1     1   G4    H19    1     0.0375     1.008
     8   gh1     1   G4    H20    1     0.0375     1.008
     9   gc3     1   G4     C4    1     0.1750    12.011
    10   gh1     1   G4    H21    1     0.0375     1.008
    11   gh1     1   G4    H22    1     0.0375     1.008
    12   gos     1   G4     O5    1    -0.5000   15.9994
    13   gc3     1   G4     C6    1     0.1750    12.011
    14   gh1     1   G4    H23    1     0.0375     1.008
    15   gh1     1   G4    H24    1     0.0375     1.008
    16   gc3     1   G4     C7    1     0.1750    12.011
    17   gh1     1   G4    H25    1     0.0375     1.008
    18   gh1     1   G4    H26    1     0.0375     1.008
    19   gos     1   G4     O8    1    -0.5000   15.9994
    20   gc3     1   G4     C9    1     0.1750    12.011
    21   gh1     1   G4    H27    1     0.0375     1.008
    22   gh1     1   G4    H28    1     0.0375     1.008
    23   gc3     1   G4    C10    1     0.1750    12.011
    24   gh1     1   G4    H29    1     0.0375     1.008
    25   gh1     1   G4    H30    1     0.0375     1.008
    26   gos     1   G4    O11    1    -0.5000   15.9994
    27   gc3     1   G4    C12    1     0.1750    12.011
    28   gh1     1   G4    H31    1     0.0375     1.008
    29   gh1     1   G4    H32    1     0.0375     1.008
    30   gc3     1   G4    C13    1     0.1750    12.011
    31   gh1     1   G4    H33    1     0.0375     1.008
    32   gh1     1   G4    H34    1     0.0375     1.008
    33   gos     1   G4    O14    1    -0.5000   15.9994
    34   gc3     1   G4    C15    1     0.1375    12.011
    35   gh1     1   G4    H35    1     0.0375     1.008
    36   gh1     1   G4    H36    1     0.0375     1.008
    37   gh1     1   G4    H37    1     0.0375     1.008
    38   Li+     1   Li+   Li+    1     1.0000     6.941


[ bonds ]
;   ai     aj funct   r             k
     2      1   1    0.10900   284512.0;    CC3 - H17   
     2      3   1    0.10900   284512.0;    CC3 - H17   
     2      4   1    0.10900   284512.0;    CC3 - H18   
     2      5   1    0.14100   267800.0;    CC3 - OO4   
     5      6   1    0.14100   267800.0;    OO4 - CC5   
     6      7   1    0.10900   284512.0;    CC5 - H19   
     6      8   1    0.10900   284512.0;    CC5 - H20   
     6      9   1    0.15290   224262.4;    CC5 - CC6   
     9     10   1    0.10900   284512.0;    CC6 - H21   
     9     11   1    0.10900   284512.0;    CC6 - H22   
     9     12   1    0.14100   267800.0;    CC6 - OO7   
    12     13   1    0.14100   267800.0;    OO7 - CC8   
    13     14   1    0.10900   284512.0;    CC8 - H23   
    13     15   1    0.10900   284512.0;    CC8 - H24   
    13     16   1    0.15290   224262.4;    CC8 - CC9   
    16     17   1    0.10900   284512.0;    CC9 - H25   
    16     18   1    0.10900   284512.0;    CC9 - H26   
    16     19   1    0.14100   267800.0;    CC9 - O10   
    19     20   1    0.14100   267800.0;    O10 - C11   
    20     21   1    0.10900   284512.0;    C11 - H27   
    20     22   1    0.10900   284512.0;    C11 - H28 
    20     23   1    0.15290   224262.4;    C11 - H28
    23     24   1    0.10900   284512.0;    CC6 - H22
    23     25   1    0.10900   284512.0;    CC6 - H22
    23     26   1    0.14100   267800.0;    OO7 - CC8
    26     27   1    0.14100   267800.0;    OO7 - CC8
    27     28   1    0.10900   284512.0;    OO7 - CC8
    27     29   1    0.10900   284512.0;    OO7 - CC8 
    27     30   1    0.15290   224262.4;    OO7 - CC8
    30     31   1    0.10900   284512.0;    OO7 - CC8
    30     32   1    0.10900   284512.0;    OO7 - CC8 
    30     33   1    0.14100   267800.0;    OO7 - CC8
    33     34   1    0.14100   267800.0;    CC3 - OO4
    34     35   1    0.10900   284512.0;    CC3 - H17   
    34     36   1    0.10900   284512.0;    CC3 - H17   
    34     37   1    0.10900   284512.0;    CC3 - H18   
 

       

[ pairs ]
;   ai     aj    funct            
    1    6    1
    2    7    1
    2    8    1
    2    9    1
    3    6    1
    4    6    1
    5   10    1
    5   11    1
    5   12    1
    6   13    1
    7   10    1
    7   11    1
    7   12    1
    8   10    1
    8   11    1
    8   12    1
    9   14    1
    9   15    1
    9   16    1
   10   13    1
   11   13    1
   12   17    1
   12   18    1
   12   19    1
   13   20    1
   14   17    1
   14   18    1
   14   19    1
   15   17    1
   15   18    1
   15   19    1
   16   21    1
   16   22    1
   16   23    1
   17   20    1
   18   20    1
   19   24    1
   19   25    1
   19   26    1
   20   27    1
   21   24    1
   21   25    1
   21   26    1
   22   24    1
   22   25    1
   22   26    1
   23   28    1
   23   29    1
   23   30    1
   24   27    1
   25   27    1
   26   31    1
   26   32    1
   26   33    1
   27   34    1
   28   31    1
   28   32    1
   28   33    1
   29   31    1
   29   32    1
   29   33    1
   30   35    1
   30   36    1
   30   37    1
   31   34    1
   32   34    1 
    

[ angles ]
;   ai     aj     ak    funct   theta         cth
     1      2      4      1       107.800    276.140;    H17 - CC3    - H18
     1      2      3      1       107.800    276.140;    H17 - CC3    - H18   
     1      2      5      1       109.500    292.880;    H17 - CC3    - OO4     
     2      5      6      1       109.500    502.420;    CC3 - OO4    - CC5   
     3      2      4      1       107.800    276.140;    H17 - CC3    - H18   
     3      2      5      1       109.500    292.880;    H17 - CC3    - OO4   
     4      2      5      1       109.500    292.880;    H18 - CC3    - OO4   
     5      6      7      1       109.500    292.880;    OO4 - CC5    - H19   
     5      6      8      1       109.500    292.880;    OO4 - CC5    - H20   
     5      6      9      1       109.500    418.400;    OO4 - CC5    - CC6   
     6      9     10      1       110.700    313.800;    CC5 - CC6    - H21   
     6      9     11      1       110.700    313.800;    CC5 - CC6    - H22   
     6      9     12      1       109.500    418.400;    CC5 - CC6    - OO7   
     7      6      8      1       107.800    276.140;    H19 - CC5    - H20   
     7      6      9      1       110.700    313.800;    H19 - CC5    - CC6   
     8      6      9      1       110.700    313.800;    H20 - CC5    - CC6   
     9     12     13      1       109.500    502.420;    CC6 - OO7    - CC8   
    10      9     11      1       107.800    276.140;    H21 - CC6    - H22   
    10      9     12      1       109.500    292.880;    H21 - CC6    - OO7   
    11      9     12      1       109.500    292.880;    H22 - CC6    - OO7   
    12     13     14      1       109.500    292.880;    OO7 - CC8    - H23   
    12     13     15      1       109.500    292.880;    OO7 - CC8    - H24   
    12     13     16      1       109.500    418.400;    OO7 - CC8    - CC9   
    13     16     17      1       110.700    313.800;    CC8 - CC9    - H25   
    13     16     18      1       110.700    313.800;    CC8 - CC9    - H26   
    13     16     19      1       109.500    418.400;    CC8 - CC9    - O10   
    14     13     15      1       107.800    276.140;    H23 - CC8    - H24   
    14     13     16      1       110.700    313.800;    H23 - CC8    - CC9   
    15     13     16      1       110.700    313.800;    H24 - CC8    - CC9   
    16     19     20      1       109.500    502.420;    CC9 - O10    - C11   
    17     16     18      1       107.800    276.140;    H25 - CC9    - H26   
    17     16     19      1       109.500    292.880;    H25 - CC9    - O10   
    18     16     19      1       109.500    292.880;    H26 - CC9    - O10   
    19     20     21      1       109.500    292.880;    OO4 - CC5    - H19   
    19     20     22      1       109.500    292.880;    OO4 - CC5    - H20   
    19     20     23      1       109.500    418.400;    OO4 - CC5    - CC6   
    20     23     24      1       110.700    313.800;    CC5 - CC6    - H21   
    20     23     25      1       110.700    313.800;    CC5 - CC6    - H22   
    20     23     26      1       109.500    418.400;    CC5 - CC6    - OO7   
    21     20     22      1       107.800    276.140;    H19 - CC5    - H20   
    21     20     23      1       110.700    313.800;    H19 - CC5    - CC6   
    22     20     23      1       110.700    313.800;    H20 - CC5    - CC6   
    23     26     27      1       109.500    502.420;    CC6 - OO7    - CC8   
    24     23     25      1       107.800    276.140;    H21 - CC6    - H22   
    24     23     26      1       109.500    292.880;    H21 - CC6    - OO7   
    25     23     26      1       109.500    292.880;    H22 - CC6    - OO7
    26     27     28      1       109.500    292.880;    OO7 - CC8    - H23   
    26     27     29      1       109.500    292.880;    OO7 - CC8    - H24   
    26     27     30      1       109.500    418.400;    OO7 - CC8    - CC9
    27     30     31      1       110.700    313.800;    CC5 - CC6    - H21   
    27     30     32      1       110.700    313.800;    CC5 - CC6    - H22   
    27     30     33      1       109.500    418.400;    CC5 - CC6    - OO7   
    28     27     29      1       107.800    276.140;    H19 - CC5    - H20   
    28     27     30      1       110.700    313.800;    H19 - CC5    - CC6   
    29     27     30      1       110.700    313.800;    H20 - CC5    - CC6   
    30     33     34      1       109.500    502.420;    CC6 - OO7    - CC8   
    31     30     32      1       107.800    276.140;    H21 - CC6    - H22   
    31     30     33      1       109.500    292.880;    H21 - CC6    - OO7   
    32     30     33      1       109.500    292.880;    H22 - CC6    - OO7
    33     34     35      1       109.500    292.880;    OO7 - CC8    - H23   
    33     34     36      1       109.500    292.880;    OO7 - CC8    - H24
    33     34     37      1       109.500    292.880;    OO7 - CC8    - H24 
    36     34     35      1       107.800    276.140;    H17 - CC3    - H18
    37     34     36      1       107.800    276.140;    H17 - CC3    - H18
    37     34     35      1       107.800    276.140;    H17 - CC3    - H18
  
   

      

[ dihedrals ] ; propers
; treated as RBs in GROMACS to use combine multiple AMBER torsions per quartet
;    i      j      k      l   func    C0         C1         C2         C3         C4         C5
     1      2      5      6      3    1.58992   4.76976   0.00000  -6.35968   0.00000   0.00000;    H17-   CC3-   OO4-   CC
     2      5      6      7      3    1.58992   4.76976   0.00000  -6.35968   0.00000   0.00000;    CC3-   OO4-   CC5-   H19
     2      5      6      8      3    1.58992   4.76976   0.00000  -6.35968   0.00000   0.00000;    CC3-   OO4-   CC5-   H20
     3      2      5      6      3    1.58992   4.76976   0.00000  -6.35968   0.00000   0.00000;    H17-   CC3-   OO4-   CC5
     4      2      5      6      3    1.58992   4.76976   0.00000  -6.35968   0.00000   0.00000;    H18-   CC3-   OO4-   CC5
     9     12     13     14      3    1.58992   4.76976   0.00000  -6.35968   0.00000   0.00000;    CC6-   OO7-   CC8-   H23
     9     12     13     15      3    1.58992   4.76976   0.00000  -6.35968   0.00000   0.00000;    CC6-   OO7-   CC8-   H24
    10      9     12     13      3    1.58992   4.76976   0.00000  -6.35968   0.00000   0.00000;    H21-   CC6-   OO7-   CC8
    11      9     12     13      3    1.58992   4.76976   0.00000  -6.35968   0.00000   0.00000;    H22-   CC6-   OO7-   CC8
    16     19     20     21      3    1.58992   4.76976   0.00000  -6.35968   0.00000   0.00000;    CC9-   O10-   C11-   H27
    16     19     20     22      3    1.58992   4.76976   0.00000  -6.35968   0.00000   0.00000;    CC9-   O10-   C11-   H28
    17     16     19     20      3    1.58992   4.76976   0.00000  -6.35968   0.00000   0.00000;    H25-   CC9-   O10-   C11
    18     16     19     20      3    1.58992   4.76976   0.00000  -6.35968   0.00000   0.00000;    H26-   CC9-   O10-   C11
    24     23     26     27      3    1.58992   4.76976   0.00000  -6.35968   0.00000   0.00000;    H26-   CC9-   O10-   C11
    25     23     26     27      3    1.58992   4.76976   0.00000  -6.35968   0.00000   0.00000;    H26-   CC9-   O10-   C11
    23     26     27     28      3    1.58992   4.76976   0.00000  -6.35968   0.00000   0.00000;    H26-   CC9-   O10-   C11
    23     26     27     29      3    1.58992   4.76976   0.00000  -6.35968   0.00000   0.00000;    H26-   CC9-   O10-   C11
    31     30     33     34      3    1.58992   4.76976   0.00000  -6.35968   0.00000   0.00000;    H26-   CC9-   O10-   C11
    32     30     33     34      3    1.58992   4.76976   0.00000  -6.35968   0.00000   0.00000;    H26-   CC9-   O10-   C11
    30     33     34     35      3    1.58992   4.76976   0.00000  -6.35968   0.00000   0.00000;    H26-   CC9-   O10-   C11
    30     33     34     36      3    1.58992   4.76976   0.00000  -6.35968   0.00000   0.00000;    H26-   CC9-   O10-   C11
    30     33     34     37      3    1.58992   4.76976   0.00000  -6.35968   0.00000   0.00000;    H26-   CC9-   O10-   C11
     2      5      6      9      3    1.71544   2.84512   1.04600  -5.60656   0.00000   0.00000;    CC3-   OO4-   CC5-   CC6
     6      9     12     13      3    1.71544   2.84512   1.04600  -5.60656   0.00000   0.00000;    CC5-   CC6-   OO7-   CC8
     9     12     13     16      3    1.71544   2.84512   1.04600  -5.60656   0.00000   0.00000;    CC6-   OO7-   CC8-   CC9
    13     16     19     20      3    1.71544   2.84512   1.04600  -5.60656   0.00000   0.00000;    CC8-   CC9-   O10-   C11
    16     19     20     23      3    1.71544   2.84512   1.04600  -5.60656   0.00000   0.00000;    CC8-   CC9-   O10-   C11
    20     23     26     27      3    1.71544   2.84512   1.04600  -5.60656   0.00000   0.00000;    CC8-   CC9-   O10-   C11
    27     30     33     34      3    1.71544   2.84512   1.04600  -5.60656   0.00000   0.00000;    CC8-   CC9-   O10-   C11
     5      6      9     10      3    0.97905   2.93716   0.00000  -3.91622   0.00000   0.00000;    OO4-   CC5-   CC6-   H21
     5      6      9     11      3    0.97905   2.93716   0.00000  -3.91622   0.00000   0.00000;    OO4-   CC5-   CC6-   H22
     7      6      9     12      3    0.97905   2.93716   0.00000  -3.91622   0.00000   0.00000;    H19-   CC5-   CC6-   OO7
     8      6      9     12      3    0.97905   2.93716   0.00000  -3.91622   0.00000   0.00000;    H20-   CC5-   CC6-   OO7
    12     13     16     17      3    0.97905   2.93716   0.00000  -3.91622   0.00000   0.00000;    OO7-   CC8-   CC9-   H25
    12     13     16     18      3    0.97905   2.93716   0.00000  -3.91622   0.00000   0.00000;    OO7-   CC8-   CC9-   H26
    14     13     16     19      3    0.97905   2.93716   0.00000  -3.91622   0.00000   0.00000;    H23-   CC8-   CC9-   O10
    15     13     16     19      3    0.97905   2.93716   0.00000  -3.91622   0.00000   0.00000;    H24-   CC8-   CC9-   O10
    19     20     23     24      3    0.97905   2.93716   0.00000  -3.91622   0.00000   0.00000;    OO4-   CC5-   CC6-   H21
    19     20     23     25      3    0.97905   2.93716   0.00000  -3.91622   0.00000   0.00000;    OO4-   CC5-   CC6-   H22
    21     20     23     26      3    0.97905   2.93716   0.00000  -3.91622   0.00000   0.00000;    H19-   CC5-   CC6-   OO7
    22     20     23     26      3    0.97905   2.93716   0.00000  -3.91622   0.00000   0.00000;    H20-   CC5-   CC6-   OO7
    26     27     30     31      3    0.97905   2.93716   0.00000  -3.91622   0.00000   0.00000;    OO7-   CC8-   CC9-   H25
    26     27     30     32      3    0.97905   2.93716   0.00000  -3.91622   0.00000   0.00000;    OO7-   CC8-   CC9-   H26
    28     27     30     33      3    0.97905   2.93716   0.00000  -3.91622   0.00000   0.00000;    H23-   CC8-   CC9-   O10
    29     27     30     33      3    0.97905   2.93716   0.00000  -3.91622   0.00000   0.00000;    H24-   CC8-   CC9-   O10
     7      6      9     10      3    0.62760   1.88280   0.00000  -2.51040   0.00000   0.00000;    H19-   CC5-   CC6-   H21
     7      6      9     11      3    0.62760   1.88280   0.00000  -2.51040   0.00000   0.00000;    H19-   CC5-   CC6-   H22
     8      6      9     10      3    0.62760   1.88280   0.00000  -2.51040   0.00000   0.00000;    H20-   CC5-   CC6-   H21
     8      6      9     11      3    0.62760   1.88280   0.00000  -2.51040   0.00000   0.00000;    H20-   CC5-   CC6-   H22
    14     13     16     17      3    0.62760   1.88280   0.00000  -2.51040   0.00000   0.00000;    H23-   CC8-   CC9-   H25
    14     13     16     18      3    0.62760   1.88280   0.00000  -2.51040   0.00000   0.00000;    H23-   CC8-   CC9-   H26
    15     13     16     17      3    0.62760   1.88280   0.00000  -2.51040   0.00000   0.00000;    H24-   CC8-   CC9-   H25
    15     13     16     18      3    0.62760   1.88280   0.00000  -2.51040   0.00000   0.00000;    H24-   CC8-   CC9-   H26
    21     20     23     24      3    0.62760   1.88280   0.00000  -2.51040   0.00000   0.00000;    H19-   CC5-   CC6-   H21
    21     20     23     25      3    0.62760   1.88280   0.00000  -2.51040   0.00000   0.00000;    H19-   CC5-   CC6-   H22
    22     20     23     24      3    0.62760   1.88280   0.00000  -2.51040   0.00000   0.00000;    H20-   CC5-   CC6-   H21
    22     20     23     25      3    0.62760   1.88280   0.00000  -2.51040   0.00000   0.00000;    H20-   CC5-   CC6-   H22
    28     27     30     31      3    0.62760   1.88280   0.00000  -2.51040   0.00000   0.00000;    H23-   CC8-   CC9-   H25
    28     27     30     32      3    0.62760   1.88280   0.00000  -2.51040   0.00000   0.00000;    H23-   CC8-   CC9-   H26
    29     27     30     31      3    0.62760   1.88280   0.00000  -2.51040   0.00000   0.00000;    H24-   CC8-   CC9-   H25
    29     27     30     32      3    0.62760   1.88280   0.00000  -2.51040   0.00000   0.00000;    H24-   CC8-   CC9-   H26
     5      6      9     12      3   -1.15060   1.15060   0.00000   0.00000   0.00000   0.00000;    OO4-   CC5-   CC6-   OO7
    12     13     16     19      3   -1.15060   1.15060   0.00000   0.00000   0.00000   0.00000;    OO7-   CC8-   CC9-   O10
    19     20     23     26      3   -1.15060   1.15060   0.00000   0.00000   0.00000   0.00000;    OO4-   CC5-   CC6-   OO7
    26     27     30     33      3   -1.15060   1.15060   0.00000   0.00000   0.00000   0.00000;    OO7-   CC8-   CC9-   O10
