[ moleculetype ]
; name       nrexcl
I                 3

[ atoms ]
;  nr   type  resnr  residu   atom   cgnr    charge
    1   I         1  I        I         1   -1.0000

[ bonds ]
;  ai    aj   func    b0        kb

[ constraints ]
;  ai    aj   func    b0

[ angles ]
;  ai    aj    ak   func    th0        cth

[ dihedrals ]
;  ai    aj    ak    al   func    coefficients

[ pairs ]
;   ai   aj   func

