[ atomtypes ]
; name  at.nr     mass   charge  ptype  sigma        epsilon
CW          6  12.0110  -0.1300      A  3.55000e-01  2.92880e-01
NA          7  14.0070   0.1500      A  3.25000e-01  7.11280e-01
CR          6  12.0110  -0.1100      A  3.55000e-01  2.92880e-01
HCW         1   1.0080   0.2100      A  2.42000e-01  1.25520e-01
HCR         1   1.0080   0.2100      A  2.42000e-01  1.25520e-01
C1          6  12.0110  -0.1700      A  3.50000e-01  2.76140e-01
H1          1   1.0080   0.1300      A  2.50000e-01  1.25520e-01
CE          6  12.0110  -0.0500      A  3.50000e-01  2.76140e-01
HC          1   1.0080   0.0600      A  2.50000e-01  1.25520e-01

