[ moleculetype ]
; name       nrexcl
IM4               3

[ atoms ]
;  nr   type  resnr  residu   atom   cgnr    charge
    1   CW        1  IM4      CW        1   -0.1300
    2   CW        1  IM4      CW        1   -0.1300
    3   NA        1  IM4      NA        1    0.1500
    4   CR        1  IM4      CR        1   -0.1100
    5   NA        1  IM4      NA        1    0.1500
    6   HCW       1  IM4      HCW       1    0.2100
    7   HCW       1  IM4      HCW       1    0.2100
    8   HCR       1  IM4      HCR       1    0.2100
    9   C1        1  IM4      C1        1   -0.1700
   10   H1        1  IM4      H1        1    0.1300
   11   H1        1  IM4      H1        1    0.1300
   12   H1        1  IM4      H1        1    0.1300
   13   C1        1  IM4      C1        1   -0.1700
   14   C2        1  IM4      C2        1    0.0100
   15   H1        1  IM4      H1        1    0.1300
   16   H1        1  IM4      H1        1    0.1300
   17   CS        1  IM4      CS        1   -0.1200
   18   HC        1  IM4      HC        1    0.0600
   19   HC        1  IM4      HC        1    0.0600
   20   CT        1  IM4      CT        1   -0.1800
   21   HC        1  IM4      HC        1    0.0600
   22   HC        1  IM4      HC        1    0.0600
   23   HC        1  IM4      HC        1    0.0600
   24   HC        1  IM4      HC        1    0.0600
   25   HC        1  IM4      HC        1    0.0600

[ bonds ]
;  ai    aj   func    b0        kb
    1     2      1    0.13410   435200.0
    1     5      1    0.13780   357400.0
    2     3      1    0.13780   357400.0
    3     4      1    0.13150   399200.0
    3     9      1    0.14660   282000.0
    4     5      1    0.13150   399200.0
    5    13      1    0.14660   282000.0
   13    14      1    0.15290   224200.0
   14    17      1    0.15290   224200.0
   17    20      1    0.15290   224200.0

[ constraints ]
;  ai    aj   func    b0
    1     6      1    0.10800
    2     7      1    0.10800
    4     8      1    0.10800
    9    10      1    0.10900
    9    11      1    0.10900
    9    12      1    0.10900
   13    15      1    0.10900
   13    16      1    0.10900
   14    18      1    0.10900
   14    19      1    0.10900
   17    21      1    0.10900
   17    22      1    0.10900
   20    23      1    0.10900
   20    24      1    0.10900
   20    25      1    0.10900

[ angles ]
;  ai    aj    ak   func    th0        cth
    2     1     5      1    107.100    585.800
    2     1     6      1    130.900    292.900
    5     1     6      1    122.000    292.900
    1     2     3      1    107.100    585.800
    1     2     7      1    130.900    292.900
    3     2     7      1    122.000    292.900
    2     3     4      1    108.000    585.800
    2     3     9      1    125.600    585.800
    4     3     9      1    126.400    585.800
    3     4     5      1    109.800    585.800
    3     4     8      1    125.100    292.900
    5     4     8      1    125.100    292.900
    1     5     4      1    108.000    585.800
    1     5    13      1    125.600    585.800
    4     5    13      1    126.400    585.800
    3     9    10      1    110.700    313.800
    3     9    11      1    110.700    313.800
    3     9    12      1    110.700    313.800
   10     9    11      1    107.800    276.100
   10     9    12      1    107.800    276.100
   11     9    12      1    107.800    276.100
    5    13    14      1    112.700    488.300
    5    13    15      1    110.700    313.800
    5    13    16      1    110.700    313.800
   14    13    15      1    110.700    313.800
   14    13    16      1    110.700    313.800
   15    13    16      1    107.800    276.100
   13    14    17      1    112.700    488.300
   13    14    18      1    110.700    313.800
   13    14    19      1    110.700    313.800
   17    14    18      1    110.700    313.800
   17    14    19      1    110.700    313.800
   18    14    19      1    107.800    276.100
   14    17    20      1    112.700    488.300
   14    17    21      1    110.700    313.800
   14    17    22      1    110.700    313.800
   20    17    21      1    110.700    313.800
   20    17    22      1    110.700    313.800
   21    17    22      1    107.800    276.100
   17    20    24      1    110.700    313.800
   17    20    25      1    110.700    313.800
   24    20    25      1    107.800    276.100
   17    20    23      1    110.700    313.800
   24    20    23      1    107.800    276.100

[ dihedrals ]
;  ai    aj    ak    al   func    coefficients
    5     1     2     3      5    0.00000  44.98000   0.00000   0.00000
    5     1     2     7      5    0.00000  44.98000   0.00000   0.00000
    6     1     2     3      5    0.00000  44.98000   0.00000   0.00000
    6     1     2     7      5    0.00000  44.98000   0.00000   0.00000
    2     1     5     4      5    0.00000  12.55200   0.00000   0.00000
    2     1     5    13      5    0.00000  12.55200   0.00000   0.00000
    6     1     5     4      5    0.00000  12.55200   0.00000   0.00000
    6     1     5    13      5    0.00000  12.55200   0.00000   0.00000
    1     2     3     4      5    0.00000  12.55200   0.00000   0.00000
    1     2     3     9      5    0.00000  12.55200   0.00000   0.00000
    7     2     3     4      5    0.00000  12.55200   0.00000   0.00000
    7     2     3     9      5    0.00000  12.55200   0.00000   0.00000
    2     3     4     5      5    0.00000  19.46000   0.00000   0.00000
    2     3     4     8      5    0.00000  19.46000   0.00000   0.00000
    9     3     4     5      5    0.00000  19.46000   0.00000   0.00000
    9     3     4     8      5    0.00000  19.46000   0.00000   0.00000
    2     3     9    10      5    0.00000   0.00000   0.51900   0.00000
    2     3     9    11      5    0.00000   0.00000   0.51900   0.00000
    2     3     9    12      5    0.00000   0.00000   0.51900   0.00000
    4     3     9    10      5    0.00000   0.00000   0.00000   0.00000
    4     3     9    11      5    0.00000   0.00000   0.00000   0.00000
    4     3     9    12      5    0.00000   0.00000   0.00000   0.00000
    3     4     5     1      5    0.00000  19.46000   0.00000   0.00000
    3     4     5    13      5    0.00000  19.46000   0.00000   0.00000
    8     4     5     1      5    0.00000  19.46000   0.00000   0.00000
    8     4     5    13      5    0.00000  19.46000   0.00000   0.00000
    1     5    13    14      5   -7.15350   6.10640   0.79390   0.00000
    1     5    13    15      5    0.00000   0.00000   0.51900   0.00000
    1     5    13    16      5    0.00000   0.00000   0.51900   0.00000
    4     5    13    14      5   -5.26910   0.00000   0.00000   0.00000
    4     5    13    15      5    0.00000   0.00000   0.00000   0.00000
    4     5    13    16      5    0.00000   0.00000   0.00000   0.00000
    5    13    14    17      5   -7.47970   3.16420  -1.20260   0.00000
    5    13    14    18      5    0.00000   0.00000   0.36700   0.00000
    5    13    14    19      5    0.00000   0.00000   0.36700   0.00000
   15    13    14    17      5    0.00000   0.00000   1.25520   0.00000
   15    13    14    18      5    0.00000   0.00000   1.25520   0.00000
   15    13    14    19      5    0.00000   0.00000   1.25520   0.00000
   16    13    14    17      5    0.00000   0.00000   1.25520   0.00000
   16    13    14    18      5    0.00000   0.00000   1.25520   0.00000
   16    13    14    19      5    0.00000   0.00000   1.25520   0.00000
   13    14    17    20      5    5.43920  -0.20920   0.83680   0.00000
   13    14    17    21      5    0.00000   0.00000   1.25520   0.00000
   13    14    17    22      5    0.00000   0.00000   1.25520   0.00000
   18    14    17    20      5    0.00000   0.00000   1.25520   0.00000
   18    14    17    21      5    0.00000   0.00000   1.25520   0.00000
   18    14    17    22      5    0.00000   0.00000   1.25520   0.00000
   19    14    17    20      5    0.00000   0.00000   1.25520   0.00000
   19    14    17    21      5    0.00000   0.00000   1.25520   0.00000
   19    14    17    22      5    0.00000   0.00000   1.25520   0.00000
   14    17    20    24      5    0.00000   0.00000   1.25520   0.00000
   14    17    20    25      5    0.00000   0.00000   1.25520   0.00000
   21    17    20    24      5    0.00000   0.00000   1.25520   0.00000
   21    17    20    25      5    0.00000   0.00000   1.25520   0.00000
   22    17    20    24      5    0.00000   0.00000   1.25520   0.00000
   22    17    20    25      5    0.00000   0.00000   1.25520   0.00000
   14    17    20    23      5    0.00000   0.00000   1.25520   0.00000
   21    17    20    23      5    0.00000   0.00000   1.25520   0.00000
   22    17    20    23      5    0.00000   0.00000   1.25520   0.00000
    5     2     1     6      5    0.00000   9.20480   0.00000   0.00000
    3     1     2     7      5    0.00000   9.20480   0.00000   0.00000
    4     2     3     9      5    0.00000   8.36800   0.00000   0.00000
    3     5     4     8      5    0.00000   9.20480   0.00000   0.00000
    4     1     5    13      5    0.00000   8.36800   0.00000   0.00000

[ pairs ]
;   ai   aj   func
    5     7      1
    6     3      1
    6     7      1
    2    13      1
    6     4      1
    6    13      1
    1     9      1
    7     4      1
    7     9      1
    2     8      1
    9     5      1
    9     8      1
    2    10      1
    2    11      1
    2    12      1
    4    10      1
    4    11      1
    4    12      1
    3    13      1
    8     1      1
    8    13      1
    1    14      1
    1    15      1
    1    16      1
    4    14      1
    4    15      1
    4    16      1
    5    17      1
    5    18      1
    5    19      1
   15    17      1
   15    18      1
   15    19      1
   16    17      1
   16    18      1
   16    19      1
   13    20      1
   13    21      1
   13    22      1
   18    20      1
   18    21      1
   18    22      1
   19    20      1
   19    21      1
   19    22      1
   14    24      1
   14    25      1
   21    24      1
   21    25      1
   22    24      1
   22    25      1
   14    23      1
   21    23      1
   22    23      1

