;
; from https://github.com/agiliopadua/ilff
; J.N. Canongia Lopes, A.A.H. Pádua, Molecular Force Field for Ionic Liquids Composed of Triflate or Bistriflylimide Anions, The Journal of Physical Chemistry B. 108 (2004) 16893–16898.
;

[ moleculetype ]
; name  nrexcl
Am      3

[ atoms ]
;  nr   type  resnr  residu  atom   cgnr    charge
    1   N4        1  Am      N4        1    0.120000
    2   C1        1  Am      C1        2   -0.170000
    3   C1        1  Am      C1        3   -0.170000
    4   C1        1  Am      C1        4   -0.170000
    5   C1        1  Am      C1        5   -0.170000
    6   H1        1  Am      H1        2    0.130000
    7   H1        1  Am      H1        2    0.130000
    8   H1        1  Am      H1        2    0.130000
    9   H1        1  Am      H1        3    0.130000
   10   H1        1  Am      H1        3    0.130000
   11   H1        1  Am      H1        3    0.130000
   12   H1        1  Am      H1        4    0.130000
   13   H1        1  Am      H1        4    0.130000
   14   H1        1  Am      H1        4    0.130000
   15   H1        1  Am      H1        5    0.130000
   16   H1        1  Am      H1        5    0.130000
   17   H1        1  Am      H1        5    0.130000

[ bonds ]
;  ai    aj   funct     c0       c1
    2     1      1    0.1448   319660 ; N4 C1
    3     1      1    0.1448   319660 ; N4 C1 
    4     1      1    0.1448   319660 ; N4 C1
    5     1      1    0.1448   319660 ; N4 C1
    6     2      1    0.1090   284500 ; C1 H1
    7     2      1    0.1090   284500 ; C1 H1
    8     2      1    0.1090   284500 ; C1 H1
    9     3      1    0.1090   284500 ; C1 H1
   10     3      1    0.1090   284500 ; C1 H1
   11     3      1    0.1090   284500 ; C1 H1
   12     4      1    0.1090   284500 ; C1 H1
   13     4      1    0.1090   284500 ; C1 H1
   14     4      1    0.1090   284500 ; C1 H1
   15     5      1    0.1090   284500 ; C1 H1
   16     5      1    0.1090   284500 ; C1 H1
   17     5      1    0.1090   284500 ; C1 H1


[ angles ]
;  ai    aj    ak   func    th0        cth
    2     1     3      1    107.200    433.500
    2     1     4      1    107.200    433.500
    2     1     5      1    107.200    433.500
    3     1     4      1    107.200    433.500
    3     1     5      1    107.200    433.500
    4     1     5      1    107.200    433.500
    1     2     6      1    109.500    292.900
    1     2     7      1    109.500    292.900
    1     2     8      1    109.500    292.900
    6     2     7      1    107.800    276.100
    6     2     8      1    107.800    276.100
    7     2     8      1    107.800    276.100
    1     3     9      1    109.500    292.900
    1     3    10      1    109.500    292.900
    1     3    11      1    109.500    292.900
    9     3    10      1    107.800    276.100
    9     3    11      1    107.800    276.100
   10     3    11      1    107.800    276.100
    1     4    12      1    109.500    292.900
    1     4    13      1    109.500    292.900
    1     4    14      1    109.500    292.900
   12     4    13      1    107.800    276.100
   12     4    14      1    107.800    276.100
   13     4    14      1    107.800    276.100
    1     5    15      1    109.500    292.900
    1     5    16      1    109.500    292.900
    1     5    17      1    109.500    292.900
   15     5    16      1    107.800    276.100
   15     5    17      1    107.800    276.100
   16     5    17      1    107.800    276.100

[ dihedrals ]
;  ai    aj    ak    al   func    coefficients
    6     2     1     3      5    0.00000   0.00000   2.34300   0.00000
    6     2     1     4      5    0.00000   0.00000   2.34300   0.00000
    6     2     1     5      5    0.00000   0.00000   2.34300   0.00000
    7     2     1     3      5    0.00000   0.00000   2.34300   0.00000
    7     2     1     4      5    0.00000   0.00000   2.34300   0.00000
    7     2     1     5      5    0.00000   0.00000   2.34300   0.00000
    8     2     1     3      5    0.00000   0.00000   2.34300   0.00000
    8     2     1     4      5    0.00000   0.00000   2.34300   0.00000
    8     2     1     5      5    0.00000   0.00000   2.34300   0.00000
    9     3     1     2      5    0.00000   0.00000   2.34300   0.00000
    9     3     1     4      5    0.00000   0.00000   2.34300   0.00000
    9     3     1     5      5    0.00000   0.00000   2.34300   0.00000
   10     3     1     2      5    0.00000   0.00000   2.34300   0.00000
   10     3     1     4      5    0.00000   0.00000   2.34300   0.00000
   10     3     1     5      5    0.00000   0.00000   2.34300   0.00000
   11     3     1     2      5    0.00000   0.00000   2.34300   0.00000
   11     3     1     4      5    0.00000   0.00000   2.34300   0.00000
   11     3     1     5      5    0.00000   0.00000   2.34300   0.00000
   12     4     1     2      5    0.00000   0.00000   2.34300   0.00000
   12     4     1     3      5    0.00000   0.00000   2.34300   0.00000
   12     4     1     5      5    0.00000   0.00000   2.34300   0.00000
   13     4     1     2      5    0.00000   0.00000   2.34300   0.00000
   13     4     1     3      5    0.00000   0.00000   2.34300   0.00000
   13     4     1     5      5    0.00000   0.00000   2.34300   0.00000
   14     4     1     2      5    0.00000   0.00000   2.34300   0.00000
   14     4     1     3      5    0.00000   0.00000   2.34300   0.00000
   14     4     1     5      5    0.00000   0.00000   2.34300   0.00000
   15     5     1     2      5    0.00000   0.00000   2.34300   0.00000
   15     5     1     3      5    0.00000   0.00000   2.34300   0.00000
   15     5     1     4      5    0.00000   0.00000   2.34300   0.00000
   16     5     1     2      5    0.00000   0.00000   2.34300   0.00000
   16     5     1     3      5    0.00000   0.00000   2.34300   0.00000
   16     5     1     4      5    0.00000   0.00000   2.34300   0.00000
   17     5     1     2      5    0.00000   0.00000   2.34300   0.00000
   17     5     1     3      5    0.00000   0.00000   2.34300   0.00000
   17     5     1     4      5    0.00000   0.00000   2.34300   0.00000
