;
; from https://github.com/agiliopadua/ilff
; J.N. Canongia Lopes, A.A.H. Pádua, Molecular Force Field for Ionic Liquids Composed of Triflate or Bistriflylimide Anions, The Journal of Physical Chemistry B. 108 (2004) 16893–16898.
;

[ moleculetype ]
; name       nrexcl
Am             3

[ atoms ]
;  nr   type  resnr  residu  atom   cgnr    charge
    1   N4        1  Am      N4        1    0.120000
    2   C1A       1  Am      C1A       2   -0.170000
    3   C1        1  Am      C1        3   -0.170000
    4   C1        1  Am      C1        4   -0.170000
    5   C1        1  Am      C1        5   -0.170000
    6   H1        1  Am      H1        6    0.130000
    7   H1        1  Am      H1        7    0.130000
    8   H1        1  Am      H1        8    0.130000
    9   H1        1  Am      H1        9    0.130000
   10   H1        1  Am      H1       10    0.130000
   11   H1        1  Am      H1       11    0.130000
   12   H1        1  Am      H1       12    0.130000
   13   H1        1  Am      H1       13    0.130000
   14   H1        1  Am      H1       14    0.130000
   15   C2        1  Am      C2       15    0.010000
   16   C2        1  Am      C2       16    0.010000
   17   C2        1  Am      C2       17    0.010000
   18   HC        1  Am      HC       18    0.060000
   19   HC        1  Am      HC       19    0.060000
   20   HC        1  Am      HC       20    0.060000
   21   HC        1  Am      HC       21    0.060000
   22   HC        1  Am      HC       22    0.060000
   23   HC        1  Am      HC       23    0.060000
   24   CS        1  Am      CS       24   -0.120000
   25   CS        1  Am      CS       25   -0.120000
   26   CS        1  Am      CS       26   -0.120000
   27   HC        1  Am      HC       27    0.060000
   28   HC        1  Am      HC       28    0.060000
   29   HC        1  Am      HC       29    0.060000
   30   HC        1  Am      HC       30    0.060000
   31   HC        1  Am      HC       31    0.060000
   32   HC        1  Am      HC       32    0.060000
   33   CT        1  Am      CT       33   -0.180000
   34   CT        1  Am      CT       34   -0.180000
   35   CT        1  Am      CT       35   -0.180000
   36   HC        1  Am      HC       36    0.060000
   37   HC        1  Am      HC       37    0.060000
   38   HC        1  Am      HC       38    0.060000
   39   HC        1  Am      HC       39    0.060000
   40   HC        1  Am      HC       40    0.060000
   41   HC        1  Am      HC       41    0.060000
   42   HC        1  Am      HC       42    0.060000
   43   HC        1  Am      HC       43    0.060000
   44   HC        1  Am      HC       44    0.060000

[ bonds ]
;  ai    aj   func    b0        kb
    1     2      1    0.14480   319660
    1     3      1    0.14480   319660
    1     4      1    0.14480   319660
    1     5      1    0.14480   319660
    3    17      1    0.15290   224200
    4    15      1    0.15290   224200
    5    16      1    0.15290   224200
   15    24      1    0.15290   224200
   16    26      1    0.15290   224200
   17    25      1    0.15290   224200
   24    34      1    0.15290   224200
   25    33      1    0.15290   224200
   26    35      1    0.15290   224200
    1     2      1    0.10900   284500 ; C1 H1
    1     3      1    0.10900   284500 ; C1 H1
    1     4      1    0.10900   284500 ; C1 H1
    1     5      1    0.10900   284500 ; C1 H1
    2     7      1    0.10900   284500 ; C1 H1
    2     8      1    0.10900   284500 ; C1 H1
    2    14      1    0.10900   284500 ; C1 H1
    3     6      1    0.10900   284500 ; C1 H1
    3    10      1    0.10900   284500 ; C1 H1
    3    17      1    0.10900   284500 ; C1 H1
    4     9      1    0.10900   284500 ; C1 H1
    4    11      1    0.10900   284500 ; C1 H1
    4    15      1    0.10900   284500 ; C1 H1
    5    12      1    0.10900   284500 ; C1 H1
    5    13      1    0.10900   284500 ; C1 H1
    5    16      1    0.10900   284500 ; C1 H1
   15    18      1    0.10900   284500 ; C1 H1
   15    20      1    0.10900   284500 ; C1 H1
   15    24      1    0.10900   284500 ; C1 H1
   16    19      1    0.10900   284500 ; C1 H1
   16    21      1    0.10900   284500 ; C1 H1
   16    26      1    0.10900   284500 ; C1 H1
   17    22      1    0.10900   284500 ; C1 H1
   17    23      1    0.10900   284500 ; C1 H1
   17    25      1    0.10900   284500 ; C1 H1
   24    27      1    0.10900   284500 ; C1 H1
   24    31      1    0.10900   284500 ; C1 H1
   24    34      1    0.10900   284500 ; C1 H1
   25    29      1    0.10900   284500 ; C1 H1
   25    30      1    0.10900   284500 ; C1 H1
   25    33      1    0.10900   284500 ; C1 H1
   26    28      1    0.10900   284500 ; C1 H1
   26    32      1    0.10900   284500 ; C1 H1
   26    35      1    0.10900   284500 ; C1 H1
   33    38      1    0.10900   284500 ; C1 H1
   33    39      1    0.10900   284500 ; C1 H1
   33    43      1    0.10900   284500 ; C1 H1
   34    36      1    0.10900   284500 ; C1 H1
   34    37      1    0.10900   284500 ; C1 H1
   34    42      1    0.10900   284500 ; C1 H1
   35    40      1    0.10900   284500 ; C1 H1
   35    41      1    0.10900   284500 ; C1 H1
   35    44      1    0.10900   284500 ; C1 H1

[ angles ]
;  ai    aj    ak   func    th0        cth
    2     1     3      1    107.200    433.500
    2     1     4      1    107.200    433.500
    2     1     5      1    107.200    433.500
    3     1     4      1    107.200    433.500
    3     1     5      1    107.200    433.500
    4     1     5      1    107.200    433.500
    1     2     7      1    109.500    292.900
    1     2     8      1    109.500    292.900
    1     2    14      1    109.500    292.900
    7     2     8      1    107.800    276.100
    7     2    14      1    107.800    276.100
    8     2    14      1    107.800    276.100
    1     3     6      1    109.500    292.900
    1     3    10      1    109.500    292.900
    1     3    17      1    109.500    470.300
    6     3    10      1    107.800    276.100
    6     3    17      1    110.700    313.800
   10     3    17      1    110.700    313.800
    1     4     9      1    109.500    292.900
    1     4    11      1    109.500    292.900
    1     4    15      1    109.500    470.300
    9     4    11      1    107.800    276.100
    9     4    15      1    110.700    313.800
   11     4    15      1    110.700    313.800
    1     5    12      1    109.500    292.900
    1     5    13      1    109.500    292.900
    1     5    16      1    109.500    470.300
   12     5    13      1    107.800    276.100
   12     5    16      1    110.700    313.800
   13     5    16      1    110.700    313.800
    4    15    18      1    110.700    313.800
    4    15    20      1    110.700    313.800
    4    15    24      1    112.700    488.300
   18    15    20      1    107.800    276.100
   18    15    24      1    110.700    313.800
   20    15    24      1    110.700    313.800
    5    16    19      1    110.700    313.800
    5    16    21      1    110.700    313.800
    5    16    26      1    112.700    488.300
   19    16    21      1    107.800    276.100
   19    16    26      1    110.700    313.800
   21    16    26      1    110.700    313.800
    3    17    22      1    110.700    313.800
    3    17    23      1    110.700    313.800
    3    17    25      1    112.700    488.300
   22    17    23      1    107.800    276.100
   22    17    25      1    110.700    313.800
   23    17    25      1    110.700    313.800
   15    24    27      1    110.700    313.800
   15    24    31      1    110.700    313.800
   15    24    34      1    112.700    488.300
   27    24    31      1    107.800    276.100
   27    24    34      1    110.700    313.800
   31    24    34      1    110.700    313.800
   17    25    29      1    110.700    313.800
   17    25    30      1    110.700    313.800
   17    25    33      1    112.700    488.300
   29    25    30      1    107.800    276.100
   29    25    33      1    110.700    313.800
   30    25    33      1    110.700    313.800
   16    26    28      1    110.700    313.800
   16    26    32      1    110.700    313.800
   16    26    35      1    112.700    488.300
   28    26    32      1    107.800    276.100
   28    26    35      1    110.700    313.800
   32    26    35      1    110.700    313.800
   25    33    38      1    110.700    313.800
   25    33    39      1    110.700    313.800
   25    33    43      1    110.700    313.800
   38    33    39      1    107.800    276.100
   38    33    43      1    107.800    276.100
   39    33    43      1    107.800    276.100
   24    34    36      1    110.700    313.800
   24    34    37      1    110.700    313.800
   24    34    42      1    110.700    313.800
   36    34    37      1    107.800    276.100
   36    34    42      1    107.800    276.100
   37    34    42      1    107.800    276.100
   26    35    40      1    110.700    313.800
   26    35    41      1    110.700    313.800
   26    35    44      1    110.700    313.800
   40    35    41      1    107.800    276.100
   40    35    44      1    107.800    276.100
   41    35    44      1    107.800    276.100

[ dihedrals ]
;  ai    aj    ak    al   func    coefficients
    3     1     2     7      5    0.00000   0.00000   2.34300   0.00000
    3     1     2     8      5    0.00000   0.00000   2.34300   0.00000
    3     1     2    14      5    0.00000   0.00000   2.34300   0.00000
    4     1     2     7      5    0.00000   0.00000   2.34300   0.00000
    4     1     2     8      5    0.00000   0.00000   2.34300   0.00000
    4     1     2    14      5    0.00000   0.00000   2.34300   0.00000
    5     1     2     7      5    0.00000   0.00000   2.34300   0.00000
    5     1     2     8      5    0.00000   0.00000   2.34300   0.00000
    5     1     2    14      5    0.00000   0.00000   2.34300   0.00000
    2     1     3     6      5    0.00000   0.00000   2.34300   0.00000
    2     1     3    10      5    0.00000   0.00000   2.34300   0.00000
    2     1     3    17      5    1.74050  -0.53560   2.90790   0.00000
    4     1     3     6      5    0.00000   0.00000   2.34300   0.00000
    4     1     3    10      5    0.00000   0.00000   2.34300   0.00000
    4     1     3    17      5    1.74050  -0.53560   2.90790   0.00000
    5     1     3     6      5    0.00000   0.00000   2.34300   0.00000
    5     1     3    10      5    0.00000   0.00000   2.34300   0.00000
    5     1     3    17      5    1.74050  -0.53560   2.90790   0.00000
    2     1     4     9      5    0.00000   0.00000   2.34300   0.00000
    2     1     4    11      5    0.00000   0.00000   2.34300   0.00000
    2     1     4    15      5    1.74050  -0.53560   2.90790   0.00000
    3     1     4     9      5    0.00000   0.00000   2.34300   0.00000
    3     1     4    11      5    0.00000   0.00000   2.34300   0.00000
    3     1     4    15      5    1.74050  -0.53560   2.90790   0.00000
    5     1     4     9      5    0.00000   0.00000   2.34300   0.00000
    5     1     4    11      5    0.00000   0.00000   2.34300   0.00000
    5     1     4    15      5    1.74050  -0.53560   2.90790   0.00000
    2     1     5    12      5    0.00000   0.00000   2.34300   0.00000
    2     1     5    13      5    0.00000   0.00000   2.34300   0.00000
    2     1     5    16      5    1.74050  -0.53560   2.90790   0.00000
    3     1     5    12      5    0.00000   0.00000   2.34300   0.00000
    3     1     5    13      5    0.00000   0.00000   2.34300   0.00000
    3     1     5    16      5    1.74050  -0.53560   2.90790   0.00000
    4     1     5    12      5    0.00000   0.00000   2.34300   0.00000
    4     1     5    13      5    0.00000   0.00000   2.34300   0.00000
    4     1     5    16      5    1.74050  -0.53560   2.90790   0.00000
    1     3    17    22      5   -4.23840  -2.96650   1.97900   0.00000
    1     3    17    23      5   -4.23840  -2.96650   1.97900   0.00000
    1     3    17    25      5   10.00810  -2.82000   2.30120   0.00000
    6     3    17    22      5    0.00000   0.00000   1.25520   0.00000
    6     3    17    23      5    0.00000   0.00000   1.25520   0.00000
    6     3    17    25      5    0.00000   0.00000   1.25520   0.00000
   10     3    17    22      5    0.00000   0.00000   1.25520   0.00000
   10     3    17    23      5    0.00000   0.00000   1.25520   0.00000
   10     3    17    25      5    0.00000   0.00000   1.25520   0.00000
    1     4    15    18      5   -4.23840  -2.96650   1.97900   0.00000
    1     4    15    20      5   -4.23840  -2.96650   1.97900   0.00000
    1     4    15    24      5   10.00810  -2.82000   2.30120   0.00000
    9     4    15    18      5    0.00000   0.00000   1.25520   0.00000
    9     4    15    20      5    0.00000   0.00000   1.25520   0.00000
    9     4    15    24      5    0.00000   0.00000   1.25520   0.00000
   11     4    15    18      5    0.00000   0.00000   1.25520   0.00000
   11     4    15    20      5    0.00000   0.00000   1.25520   0.00000
   11     4    15    24      5    0.00000   0.00000   1.25520   0.00000
    1     5    16    19      5   -4.23840  -2.96650   1.97900   0.00000
    1     5    16    21      5   -4.23840  -2.96650   1.97900   0.00000
    1     5    16    26      5   10.00810  -2.82000   2.30120   0.00000
   12     5    16    19      5    0.00000   0.00000   1.25520   0.00000
   12     5    16    21      5    0.00000   0.00000   1.25520   0.00000
   12     5    16    26      5    0.00000   0.00000   1.25520   0.00000
   13     5    16    19      5    0.00000   0.00000   1.25520   0.00000
   13     5    16    21      5    0.00000   0.00000   1.25520   0.00000
   13     5    16    26      5    0.00000   0.00000   1.25520   0.00000
    4    15    24    27      5    0.00000   0.00000   1.25520   0.00000
    4    15    24    31      5    0.00000   0.00000   1.25520   0.00000
    4    15    24    34      5    5.43920  -0.20920   0.83680   0.00000
   18    15    24    27      5    0.00000   0.00000   1.25520   0.00000
   18    15    24    31      5    0.00000   0.00000   1.25520   0.00000
   18    15    24    34      5    0.00000   0.00000   1.25520   0.00000
   20    15    24    27      5    0.00000   0.00000   1.25520   0.00000
   20    15    24    31      5    0.00000   0.00000   1.25520   0.00000
   20    15    24    34      5    0.00000   0.00000   1.25520   0.00000
    5    16    26    28      5    0.00000   0.00000   1.25520   0.00000
    5    16    26    32      5    0.00000   0.00000   1.25520   0.00000
    5    16    26    35      5    5.43920  -0.20920   0.83680   0.00000
   19    16    26    28      5    0.00000   0.00000   1.25520   0.00000
   19    16    26    32      5    0.00000   0.00000   1.25520   0.00000
   19    16    26    35      5    0.00000   0.00000   1.25520   0.00000
   21    16    26    28      5    0.00000   0.00000   1.25520   0.00000
   21    16    26    32      5    0.00000   0.00000   1.25520   0.00000
   21    16    26    35      5    0.00000   0.00000   1.25520   0.00000
    3    17    25    29      5    0.00000   0.00000   1.25520   0.00000
    3    17    25    30      5    0.00000   0.00000   1.25520   0.00000
    3    17    25    33      5    5.43920  -0.20920   0.83680   0.00000
   22    17    25    29      5    0.00000   0.00000   1.25520   0.00000
   22    17    25    30      5    0.00000   0.00000   1.25520   0.00000
   22    17    25    33      5    0.00000   0.00000   1.25520   0.00000
   23    17    25    29      5    0.00000   0.00000   1.25520   0.00000
   23    17    25    30      5    0.00000   0.00000   1.25520   0.00000
   23    17    25    33      5    0.00000   0.00000   1.25520   0.00000
   15    24    34    36      5    0.00000   0.00000   1.25520   0.00000
   15    24    34    37      5    0.00000   0.00000   1.25520   0.00000
   15    24    34    42      5    0.00000   0.00000   1.25520   0.00000
   27    24    34    36      5    0.00000   0.00000   1.25520   0.00000
   27    24    34    37      5    0.00000   0.00000   1.25520   0.00000
   27    24    34    42      5    0.00000   0.00000   1.25520   0.00000
   31    24    34    36      5    0.00000   0.00000   1.25520   0.00000
   31    24    34    37      5    0.00000   0.00000   1.25520   0.00000
   31    24    34    42      5    0.00000   0.00000   1.25520   0.00000
   17    25    33    38      5    0.00000   0.00000   1.25520   0.00000
   17    25    33    39      5    0.00000   0.00000   1.25520   0.00000
   17    25    33    43      5    0.00000   0.00000   1.25520   0.00000
   29    25    33    38      5    0.00000   0.00000   1.25520   0.00000
   29    25    33    39      5    0.00000   0.00000   1.25520   0.00000
   29    25    33    43      5    0.00000   0.00000   1.25520   0.00000
   30    25    33    38      5    0.00000   0.00000   1.25520   0.00000
   30    25    33    39      5    0.00000   0.00000   1.25520   0.00000
   30    25    33    43      5    0.00000   0.00000   1.25520   0.00000
   16    26    35    40      5    0.00000   0.00000   1.25520   0.00000
   16    26    35    41      5    0.00000   0.00000   1.25520   0.00000
   16    26    35    44      5    0.00000   0.00000   1.25520   0.00000
   28    26    35    40      5    0.00000   0.00000   1.25520   0.00000
   28    26    35    41      5    0.00000   0.00000   1.25520   0.00000
   28    26    35    44      5    0.00000   0.00000   1.25520   0.00000
   32    26    35    40      5    0.00000   0.00000   1.25520   0.00000
   32    26    35    41      5    0.00000   0.00000   1.25520   0.00000
   32    26    35    44      5    0.00000   0.00000   1.25520   0.00000
