;
; from https://github.com/agiliopadua/ilff
; J.N. Canongia Lopes, A.A.H. Pádua, Molecular Force Field for Ionic Liquids Composed of Triflate or Bistriflylimide Anions, The Journal of Physical Chemistry B. 108 (2004) 16893–16898.
;

[ moleculetype ]
; name  nrexcl
Am      3

[ atoms ]
;  nr   type  resnr  residu  atom   cgnr    charge
    1   N4        1  Am      N4        1    0.120000
    2   C1A       1  Am      C1A       2   -0.170000
    3   C1A       1  Am      C1A       3   -0.170000
    4   C1A       1  Am      C1A       4   -0.170000
    5   C1A       1  Am      C1A       5   -0.170000
    6   H1        1  Am      H1        6    0.130000
    7   H1        1  Am      H1        7    0.130000
    8   H1        1  Am      H1        8    0.130000
    9   H1        1  Am      H1        9    0.130000
   10   H1        1  Am      H1       10    0.130000
   11   H1        1  Am      H1       11    0.130000
   12   H1        1  Am      H1       12    0.130000
   13   H1        1  Am      H1       13    0.130000
   14   C2        1  Am      C2       14    0.010000
   15   C2        1  Am      C2       15    0.010000
   16   C2        1  Am      C2       16    0.010000
   17   C2        1  Am      C2       17    0.010000
   18   HC        1  Am      HC       18    0.060000
   19   HC        1  Am      HC       19    0.060000
   20   HC        1  Am      HC       20    0.060000
   21   HC        1  Am      HC       21    0.060000
   22   HC        1  Am      HC       22    0.060000
   23   HC        1  Am      HC       23    0.060000
   24   HC        1  Am      HC       24    0.060000
   25   HC        1  Am      HC       25    0.060000
   26   CS        1  Am      CS       26   -0.120000
   27   CS        1  Am      CS       27   -0.120000
   28   CS        1  Am      CS       28   -0.120000
   29   CS        1  Am      CS       29   -0.120000
   30   CT        1  Am      CT       30   -0.180000
   31   CT        1  Am      CT       31   -0.180000
   32   CT        1  Am      CT       32   -0.180000
   33   CT        1  Am      CT       33   -0.180000
   34   HC        1  Am      HC       34    0.060000
   35   HC        1  Am      HC       35    0.060000
   36   HC        1  Am      HC       36    0.060000
   37   HC        1  Am      HC       37    0.060000
   38   HC        1  Am      HC       38    0.060000
   39   HC        1  Am      HC       39    0.060000
   40   HC        1  Am      HC       40    0.060000
   41   HC        1  Am      HC       41    0.060000
   42   HC        1  Am      HC       42    0.060000
   43   HC        1  Am      HC       43    0.060000
   44   HC        1  Am      HC       44    0.060000
   45   HC        1  Am      HC       45    0.060000
   46   HC        1  Am      HC       46    0.060000
   47   HC        1  Am      HC       47    0.060000
   48   HC        1  Am      HC       48    0.060000
   49   HC        1  Am      HC       49    0.060000
   50   HC        1  Am      HC       50    0.060000
   51   HC        1  Am      HC       51    0.060000
   52   HC        1  Am      HC       52    0.060000
   53   HC        1  Am      HC       53    0.060000

[ bonds ]
;  ai    aj   func    b0        kb
    1     2      1    0.14480   319660
    1     3      1    0.14480   319660
    1     4      1    0.14480   319660
    1     5      1    0.14480   319660
    2    14      1    0.15290   224200
    3    15      1    0.15290   224200
    4    16      1    0.15290   224200
    5    17      1    0.15290   224200
   14    26      1    0.15290   224200
   15    27      1    0.15290   224200
   16    28      1    0.15290   224200
   17    29      1    0.15290   224200
   26    30      1    0.15290   224200
   27    31      1    0.15290   224200
   28    32      1    0.15290   224200
   29    33      1    0.15290   224200
    1     2      1    0.10900   284500 ; C1 H1
    1     3      1    0.10900   284500 ; C1 H1
    1     4      1    0.10900   284500 ; C1 H1
    1     5      1    0.10900   284500 ; C1 H1
    2     6      1    0.10900   284500 ; C1 H1
    2     7      1    0.10900   284500 ; C1 H1
    2    14      1    0.10900   284500 ; C1 H1
    3    10      1    0.10900   284500 ; C1 H1
    3    11      1    0.10900   284500 ; C1 H1
    3    15      1    0.10900   284500 ; C1 H1
    4     8      1    0.10900   284500 ; C1 H1
    4     9      1    0.10900   284500 ; C1 H1
    4    16      1    0.10900   284500 ; C1 H1
    5    12      1    0.10900   284500 ; C1 H1
    5    13      1    0.10900   284500 ; C1 H1
    5    17      1    0.10900   284500 ; C1 H1
   14    18      1    0.10900   284500 ; C1 H1
   14    19      1    0.10900   284500 ; C1 H1
   14    26      1    0.10900   284500 ; C1 H1
   15    20      1    0.10900   284500 ; C1 H1
   15    21      1    0.10900   284500 ; C1 H1
   15    27      1    0.10900   284500 ; C1 H1
   16    22      1    0.10900   284500 ; C1 H1
   16    23      1    0.10900   284500 ; C1 H1
   16    28      1    0.10900   284500 ; C1 H1
   17    24      1    0.10900   284500 ; C1 H1
   17    25      1    0.10900   284500 ; C1 H1
   17    29      1    0.10900   284500 ; C1 H1
   26    30      1    0.10900   284500 ; C1 H1
   26    34      1    0.10900   284500 ; C1 H1
   26    35      1    0.10900   284500 ; C1 H1
   27    31      1    0.10900   284500 ; C1 H1
   27    39      1    0.10900   284500 ; C1 H1
   27    40      1    0.10900   284500 ; C1 H1
   28    32      1    0.10900   284500 ; C1 H1
   28    52      1    0.10900   284500 ; C1 H1
   28    53      1    0.10900   284500 ; C1 H1
   29    33      1    0.10900   284500 ; C1 H1
   29    47      1    0.10900   284500 ; C1 H1
   29    48      1    0.10900   284500 ; C1 H1
   30    36      1    0.10900   284500 ; C1 H1
   30    37      1    0.10900   284500 ; C1 H1
   30    38      1    0.10900   284500 ; C1 H1
   31    41      1    0.10900   284500 ; C1 H1
   31    42      1    0.10900   284500 ; C1 H1
   31    43      1    0.10900   284500 ; C1 H1
   32    49      1    0.10900   284500 ; C1 H1
   32    50      1    0.10900   284500 ; C1 H1
   32    51      1    0.10900   284500 ; C1 H1
   33    44      1    0.10900   284500 ; C1 H1
   33    45      1    0.10900   284500 ; C1 H1
   33    46      1    0.10900   284500 ; C1 H1

[ angles ]
;  ai    aj    ak   func    th0        cth
    2     1     3      1    107.200    433.500
    2     1     4      1    107.200    433.500
    2     1     5      1    107.200    433.500
    3     1     4      1    107.200    433.500
    3     1     5      1    107.200    433.500
    4     1     5      1    107.200    433.500
    1     2     6      1    109.500    292.900
    1     2     7      1    109.500    292.900
    1     2    14      1    109.500    470.300
    6     2     7      1    107.800    276.100
    6     2    14      1    110.700    313.800
    7     2    14      1    110.700    313.800
    1     3    10      1    109.500    292.900
    1     3    11      1    109.500    292.900
    1     3    15      1    109.500    470.300
   10     3    11      1    107.800    276.100
   10     3    15      1    110.700    313.800
   11     3    15      1    110.700    313.800
    1     4     8      1    109.500    292.900
    1     4     9      1    109.500    292.900
    1     4    16      1    109.500    470.300
    8     4     9      1    107.800    276.100
    8     4    16      1    110.700    313.800
    9     4    16      1    110.700    313.800
    1     5    12      1    109.500    292.900
    1     5    13      1    109.500    292.900
    1     5    17      1    109.500    470.300
   12     5    13      1    107.800    276.100
   12     5    17      1    110.700    313.800
   13     5    17      1    110.700    313.800
    2    14    18      1    110.700    313.800
    2    14    19      1    110.700    313.800
    2    14    26      1    112.700    488.300
   18    14    19      1    107.800    276.100
   18    14    26      1    110.700    313.800
   19    14    26      1    110.700    313.800
    3    15    20      1    110.700    313.800
    3    15    21      1    110.700    313.800
    3    15    27      1    112.700    488.300
   20    15    21      1    107.800    276.100
   20    15    27      1    110.700    313.800
   21    15    27      1    110.700    313.800
    4    16    22      1    110.700    313.800
    4    16    23      1    110.700    313.800
    4    16    28      1    112.700    488.300
   22    16    23      1    107.800    276.100
   22    16    28      1    110.700    313.800
   23    16    28      1    110.700    313.800
    5    17    24      1    110.700    313.800
    5    17    25      1    110.700    313.800
    5    17    29      1    112.700    488.300
   24    17    25      1    107.800    276.100
   24    17    29      1    110.700    313.800
   25    17    29      1    110.700    313.800
   14    26    30      1    112.700    488.300
   14    26    34      1    110.700    313.800
   14    26    35      1    110.700    313.800
   30    26    34      1    110.700    313.800
   30    26    35      1    110.700    313.800
   34    26    35      1    107.800    276.100
   15    27    31      1    112.700    488.300
   15    27    39      1    110.700    313.800
   15    27    40      1    110.700    313.800
   31    27    39      1    110.700    313.800
   31    27    40      1    110.700    313.800
   39    27    40      1    107.800    276.100
   16    28    32      1    112.700    488.300
   16    28    52      1    110.700    313.800
   16    28    53      1    110.700    313.800
   32    28    52      1    110.700    313.800
   32    28    53      1    110.700    313.800
   52    28    53      1    107.800    276.100
   17    29    33      1    112.700    488.300
   17    29    47      1    110.700    313.800
   17    29    48      1    110.700    313.800
   33    29    47      1    110.700    313.800
   33    29    48      1    110.700    313.800
   47    29    48      1    107.800    276.100
   26    30    36      1    110.700    313.800
   26    30    37      1    110.700    313.800
   26    30    38      1    110.700    313.800
   36    30    37      1    107.800    276.100
   36    30    38      1    107.800    276.100
   37    30    38      1    107.800    276.100
   27    31    41      1    110.700    313.800
   27    31    42      1    110.700    313.800
   27    31    43      1    110.700    313.800
   41    31    42      1    107.800    276.100
   41    31    43      1    107.800    276.100
   42    31    43      1    107.800    276.100
   28    32    49      1    110.700    313.800
   28    32    50      1    110.700    313.800
   28    32    51      1    110.700    313.800
   49    32    50      1    107.800    276.100
   49    32    51      1    107.800    276.100
   50    32    51      1    107.800    276.100
   29    33    44      1    110.700    313.800
   29    33    45      1    110.700    313.800
   29    33    46      1    110.700    313.800
   44    33    45      1    107.800    276.100
   44    33    46      1    107.800    276.100
   45    33    46      1    107.800    276.100

[ dihedrals ]
;  ai    aj    ak    al   func    coefficients
    3     1     2     6      5    0.00000   0.00000   2.34300   0.00000
    3     1     2     7      5    0.00000   0.00000   2.34300   0.00000
    3     1     2    14      5    1.74050  -0.53560   2.90790   0.00000
    4     1     2     6      5    0.00000   0.00000   2.34300   0.00000
    4     1     2     7      5    0.00000   0.00000   2.34300   0.00000
    4     1     2    14      5    1.74050  -0.53560   2.90790   0.00000
    5     1     2     6      5    0.00000   0.00000   2.34300   0.00000
    5     1     2     7      5    0.00000   0.00000   2.34300   0.00000
    5     1     2    14      5    1.74050  -0.53560   2.90790   0.00000
    2     1     3    10      5    0.00000   0.00000   2.34300   0.00000
    2     1     3    11      5    0.00000   0.00000   2.34300   0.00000
    2     1     3    15      5    1.74050  -0.53560   2.90790   0.00000
    4     1     3    10      5    0.00000   0.00000   2.34300   0.00000
    4     1     3    11      5    0.00000   0.00000   2.34300   0.00000
    4     1     3    15      5    1.74050  -0.53560   2.90790   0.00000
    5     1     3    10      5    0.00000   0.00000   2.34300   0.00000
    5     1     3    11      5    0.00000   0.00000   2.34300   0.00000
    5     1     3    15      5    1.74050  -0.53560   2.90790   0.00000
    2     1     4     8      5    0.00000   0.00000   2.34300   0.00000
    2     1     4     9      5    0.00000   0.00000   2.34300   0.00000
    2     1     4    16      5    1.74050  -0.53560   2.90790   0.00000
    3     1     4     8      5    0.00000   0.00000   2.34300   0.00000
    3     1     4     9      5    0.00000   0.00000   2.34300   0.00000
    3     1     4    16      5    1.74050  -0.53560   2.90790   0.00000
    5     1     4     8      5    0.00000   0.00000   2.34300   0.00000
    5     1     4     9      5    0.00000   0.00000   2.34300   0.00000
    5     1     4    16      5    1.74050  -0.53560   2.90790   0.00000
    2     1     5    12      5    0.00000   0.00000   2.34300   0.00000
    2     1     5    13      5    0.00000   0.00000   2.34300   0.00000
    2     1     5    17      5    1.74050  -0.53560   2.90790   0.00000
    3     1     5    12      5    0.00000   0.00000   2.34300   0.00000
    3     1     5    13      5    0.00000   0.00000   2.34300   0.00000
    3     1     5    17      5    1.74050  -0.53560   2.90790   0.00000
    4     1     5    12      5    0.00000   0.00000   2.34300   0.00000
    4     1     5    13      5    0.00000   0.00000   2.34300   0.00000
    4     1     5    17      5    1.74050  -0.53560   2.90790   0.00000
    1     2    14    18      5   -4.23840  -2.96650   1.97900   0.00000
    1     2    14    19      5   -4.23840  -2.96650   1.97900   0.00000
    1     2    14    26      5   10.00810  -2.82000   2.30120   0.00000
    6     2    14    18      5    0.00000   0.00000   1.25520   0.00000
    6     2    14    19      5    0.00000   0.00000   1.25520   0.00000
    6     2    14    26      5    0.00000   0.00000   1.25520   0.00000
    7     2    14    18      5    0.00000   0.00000   1.25520   0.00000
    7     2    14    19      5    0.00000   0.00000   1.25520   0.00000
    7     2    14    26      5    0.00000   0.00000   1.25520   0.00000
    1     3    15    20      5   -4.23840  -2.96650   1.97900   0.00000
    1     3    15    21      5   -4.23840  -2.96650   1.97900   0.00000
    1     3    15    27      5   10.00810  -2.82000   2.30120   0.00000
   10     3    15    20      5    0.00000   0.00000   1.25520   0.00000
   10     3    15    21      5    0.00000   0.00000   1.25520   0.00000
   10     3    15    27      5    0.00000   0.00000   1.25520   0.00000
   11     3    15    20      5    0.00000   0.00000   1.25520   0.00000
   11     3    15    21      5    0.00000   0.00000   1.25520   0.00000
   11     3    15    27      5    0.00000   0.00000   1.25520   0.00000
    1     4    16    22      5   -4.23840  -2.96650   1.97900   0.00000
    1     4    16    23      5   -4.23840  -2.96650   1.97900   0.00000
    1     4    16    28      5   10.00810  -2.82000   2.30120   0.00000
    8     4    16    22      5    0.00000   0.00000   1.25520   0.00000
    8     4    16    23      5    0.00000   0.00000   1.25520   0.00000
    8     4    16    28      5    0.00000   0.00000   1.25520   0.00000
    9     4    16    22      5    0.00000   0.00000   1.25520   0.00000
    9     4    16    23      5    0.00000   0.00000   1.25520   0.00000
    9     4    16    28      5    0.00000   0.00000   1.25520   0.00000
    1     5    17    24      5   -4.23840  -2.96650   1.97900   0.00000
    1     5    17    25      5   -4.23840  -2.96650   1.97900   0.00000
    1     5    17    29      5   10.00810  -2.82000   2.30120   0.00000
   12     5    17    24      5    0.00000   0.00000   1.25520   0.00000
   12     5    17    25      5    0.00000   0.00000   1.25520   0.00000
   12     5    17    29      5    0.00000   0.00000   1.25520   0.00000
   13     5    17    24      5    0.00000   0.00000   1.25520   0.00000
   13     5    17    25      5    0.00000   0.00000   1.25520   0.00000
   13     5    17    29      5    0.00000   0.00000   1.25520   0.00000
    2    14    26    30      5    5.43920  -0.20920   0.83680   0.00000
    2    14    26    34      5    0.00000   0.00000   1.25520   0.00000
    2    14    26    35      5    0.00000   0.00000   1.25520   0.00000
   18    14    26    30      5    0.00000   0.00000   1.25520   0.00000
   18    14    26    34      5    0.00000   0.00000   1.25520   0.00000
   18    14    26    35      5    0.00000   0.00000   1.25520   0.00000
   19    14    26    30      5    0.00000   0.00000   1.25520   0.00000
   19    14    26    34      5    0.00000   0.00000   1.25520   0.00000
   19    14    26    35      5    0.00000   0.00000   1.25520   0.00000
    3    15    27    31      5    5.43920  -0.20920   0.83680   0.00000
    3    15    27    39      5    0.00000   0.00000   1.25520   0.00000
    3    15    27    40      5    0.00000   0.00000   1.25520   0.00000
   20    15    27    31      5    0.00000   0.00000   1.25520   0.00000
   20    15    27    39      5    0.00000   0.00000   1.25520   0.00000
   20    15    27    40      5    0.00000   0.00000   1.25520   0.00000
   21    15    27    31      5    0.00000   0.00000   1.25520   0.00000
   21    15    27    39      5    0.00000   0.00000   1.25520   0.00000
   21    15    27    40      5    0.00000   0.00000   1.25520   0.00000
    4    16    28    32      5    5.43920  -0.20920   0.83680   0.00000
    4    16    28    52      5    0.00000   0.00000   1.25520   0.00000
    4    16    28    53      5    0.00000   0.00000   1.25520   0.00000
   22    16    28    32      5    0.00000   0.00000   1.25520   0.00000
   22    16    28    52      5    0.00000   0.00000   1.25520   0.00000
   22    16    28    53      5    0.00000   0.00000   1.25520   0.00000
   23    16    28    32      5    0.00000   0.00000   1.25520   0.00000
   23    16    28    52      5    0.00000   0.00000   1.25520   0.00000
   23    16    28    53      5    0.00000   0.00000   1.25520   0.00000
    5    17    29    33      5    5.43920  -0.20920   0.83680   0.00000
    5    17    29    47      5    0.00000   0.00000   1.25520   0.00000
    5    17    29    48      5    0.00000   0.00000   1.25520   0.00000
   24    17    29    33      5    0.00000   0.00000   1.25520   0.00000
   24    17    29    47      5    0.00000   0.00000   1.25520   0.00000
   24    17    29    48      5    0.00000   0.00000   1.25520   0.00000
   25    17    29    33      5    0.00000   0.00000   1.25520   0.00000
   25    17    29    47      5    0.00000   0.00000   1.25520   0.00000
   25    17    29    48      5    0.00000   0.00000   1.25520   0.00000
   14    26    30    36      5    0.00000   0.00000   1.25520   0.00000
   14    26    30    37      5    0.00000   0.00000   1.25520   0.00000
   14    26    30    38      5    0.00000   0.00000   1.25520   0.00000
   34    26    30    36      5    0.00000   0.00000   1.25520   0.00000
   34    26    30    37      5    0.00000   0.00000   1.25520   0.00000
   34    26    30    38      5    0.00000   0.00000   1.25520   0.00000
   35    26    30    36      5    0.00000   0.00000   1.25520   0.00000
   35    26    30    37      5    0.00000   0.00000   1.25520   0.00000
   35    26    30    38      5    0.00000   0.00000   1.25520   0.00000
   15    27    31    41      5    0.00000   0.00000   1.25520   0.00000
   15    27    31    42      5    0.00000   0.00000   1.25520   0.00000
   15    27    31    43      5    0.00000   0.00000   1.25520   0.00000
   39    27    31    41      5    0.00000   0.00000   1.25520   0.00000
   39    27    31    42      5    0.00000   0.00000   1.25520   0.00000
   39    27    31    43      5    0.00000   0.00000   1.25520   0.00000
   40    27    31    41      5    0.00000   0.00000   1.25520   0.00000
   40    27    31    42      5    0.00000   0.00000   1.25520   0.00000
   40    27    31    43      5    0.00000   0.00000   1.25520   0.00000
   16    28    32    49      5    0.00000   0.00000   1.25520   0.00000
   16    28    32    50      5    0.00000   0.00000   1.25520   0.00000
   16    28    32    51      5    0.00000   0.00000   1.25520   0.00000
   52    28    32    49      5    0.00000   0.00000   1.25520   0.00000
   52    28    32    50      5    0.00000   0.00000   1.25520   0.00000
   52    28    32    51      5    0.00000   0.00000   1.25520   0.00000
   53    28    32    49      5    0.00000   0.00000   1.25520   0.00000
   53    28    32    50      5    0.00000   0.00000   1.25520   0.00000
   53    28    32    51      5    0.00000   0.00000   1.25520   0.00000
   17    29    33    44      5    0.00000   0.00000   1.25520   0.00000
   17    29    33    45      5    0.00000   0.00000   1.25520   0.00000
   17    29    33    46      5    0.00000   0.00000   1.25520   0.00000
   47    29    33    44      5    0.00000   0.00000   1.25520   0.00000
   47    29    33    45      5    0.00000   0.00000   1.25520   0.00000
   47    29    33    46      5    0.00000   0.00000   1.25520   0.00000
   48    29    33    44      5    0.00000   0.00000   1.25520   0.00000
   48    29    33    45      5    0.00000   0.00000   1.25520   0.00000
   48    29    33    46      5    0.00000   0.00000   1.25520   0.00000
