[ atomtypes ]
; name  at.nr     mass   charge  ptype  sigma        epsilon
SBT        16  32.0660   1.0200      A  3.55000e-01  1.04600e+00
OTF         8  15.9990  -0.6300      A  3.15000e-01  8.37360e-01
CBT         6  12.0110   0.3500      A  3.50000e-01  2.76140e-01
F1          9  18.9980  -0.1600      A  3.11800e-01  2.55400e-01

