[ moleculetype ]
; name       nrexcl
OTF               3

[ atoms ]
;  nr   type  resnr  residu   atom   cgnr    charge
    1   SBT       1  OTF      SBT       1    1.0200
    2   OTF       1  OTF      OTF       1   -0.6300
    3   OTF       1  OTF      OTF       1   -0.6300
    4   OTF       1  OTF      OTF       1   -0.6300
    5   CBT       1  OTF      CBT       1    0.3500
    6   F1        1  OTF      F1        1   -0.1600
    7   F1        1  OTF      F1        1   -0.1600
    8   F1        1  OTF      F1        1   -0.1600

[ bonds ]
;  ai    aj   func    b0        kb
    1     2      1    0.14370   533100.0
    1     4      1    0.14370   533100.0
    1     3      1    0.14370   533100.0
    1     5      1    0.18180   195000.0
    5     6      1    0.13230   369800.0
    5     7      1    0.13230   369800.0
    5     8      1    0.13230   369800.0

[ constraints ]
;  ai    aj   func    b0

[ angles ]
;  ai    aj    ak   func    th0        cth
    2     1     5      1    102.600    870.000
    3     1     5      1    102.600    870.000
    4     1     5      1    102.600    870.000
    1     5     6      1    111.700    694.000
    1     5     7      1    111.700    694.000
    1     5     8      1    111.700    694.000
    6     5     7      1    107.100    781.000
    6     5     8      1    107.100    781.000
    7     5     8      1    107.100    781.000
    2     1     3      1    118.500    969.000 ; O S O, from TFSI
    2     1     4      1    118.500    969.000 ; O S O, from TFSI
    3     1     4      1    118.500    969.000 ; O S O, from TFSI
 
[ dihedrals ]
;  ai    aj    ak    al   func    coefficients
    2     1     5     6      5    0.00000   0.00000   1.45100   0.00000
    2     1     5     7      5    0.00000   0.00000   1.45100   0.00000
    2     1     5     8      5    0.00000   0.00000   1.45100   0.00000
    3     1     5     6      5    0.00000   0.00000   1.45100   0.00000
    3     1     5     7      5    0.00000   0.00000   1.45100   0.00000
    3     1     5     8      5    0.00000   0.00000   1.45100   0.00000
    4     1     5     7      5    0.00000   0.00000   1.45100   0.00000
    4     1     5     6      5    0.00000   0.00000   1.45100   0.00000
    4     1     5     7      5    0.00000   0.00000   1.45100   0.00000

[ pairs ]
;   ai   aj   func
    2     6      1
    2     7      1
    2     8      1
    3     6      1
    3     7      1
    3     8      1
    4     6      1
    4     7      1
    4     8      1

