[ moleculetype ]
; name       nrexcl
OTF               3

[ atoms ]
;  nr   type  resnr  residu   atom   cgnr    charge
    1   SBT       1  OTF      SBT       1    1.0200
    2   OTF       1  OTF      OTF       1   -0.6300
    3   OTF       1  OTF      OTF       1   -0.6300
    4   OTF       1  OTF      OTF       1   -0.6300
    5   C1F       1  OTF      C1F       1    0.1900
    6   CEF       1  OTF      CEF       1    0.3600
    7   F1        1  OTF      F1        1   -0.1600
    8   F1        1  OTF      F1        1   -0.1600
    9   F         1  OTF      F         1   -0.1200
   10   F         1  OTF      F         1   -0.1200
   11   F         1  OTF      F         1   -0.1200

[ bonds ]
;  ai    aj   func    b0        kb
    1     2      1    0.14370   533100.0
    1     3      1    0.14370   533100.0
    1     4      1    0.14370   533100.0
    1     5      1    0.18180   195000.0
    5     6      1    0.15290   224260.0
    5     7      1    0.13230   369800.0
    5     8      1    0.13230   369800.0
    6     9      1    0.13320   307110.0
    6     9      1    0.13320   307110.0
    6    10      1    0.13320   307110.0
    6    11      1    0.13320   307110.0

[ constraints ]
;  ai    aj   func    b0

[ angles ]
;  ai    aj    ak   func    th0        cth
    2     1     5      1    102.600    870.000
    3     1     5      1    102.600    870.000
    4     1     5      1    102.600    870.000
    1     5     6      1    115.900    418.400
    1     5     7      1    111.700    694.000
    1     5     8      1    111.700    694.000
    6     5     7      1    109.500    418.400
    6     5     8      1    109.500    418.400
    7     5     8      1    107.100    781.000
    5     6     9      1    109.500    418.400
    5     6    10      1    109.500    418.400
    5     6    11      1    109.500    418.400
    9     6    10      1    109.100    644.300
    9     6    11      1    109.100    644.300
   10     6    11      1    109.100    644.300
   10     6     9      1    109.100    644.300
    2     1     3      1    118.500    969.000 ; O S O, from TFSI
    2     1     4      1    118.500    969.000 ; O S O, from TFSI
    3     1     4      1    118.500    969.000 ; O S O, from TFSI

[ dihedrals ]
;  ai    aj    ak    al   func    coefficients
    2     1     5     6      5    0.00000   0.00000  -0.74000   0.00000
    2     1     5     7      5    0.00000   0.00000   1.45100   0.00000
    2     1     5     8      5    0.00000   0.00000   1.45100   0.00000
    3     1     5     6      5    0.00000   0.00000  -0.74000   0.00000
    3     1     5     7      5    0.00000   0.00000   1.45100   0.00000
    3     1     5     8      5    0.00000   0.00000   1.45100   0.00000
    4     1     5     6      5    0.00000   0.00000  -0.74000   0.00000
    4     1     5     7      5    0.00000   0.00000   1.45100   0.00000
    4     1     5     8      5    0.00000   0.00000   1.45100   0.00000
    1     5     6     9      5    0.00000   0.00000   1.45300   0.00000
    1     5     6    10      5    0.00000   0.00000   1.45300   0.00000
    1     5     6    11      5    0.00000   0.00000   1.45300   0.00000
    7     5     6     9      5  -10.46000   0.00000   1.04600   0.00000
    7     5     6    10      5  -10.46000   0.00000   1.04600   0.00000
    7     5     6    11      5  -10.46000   0.00000   1.04600   0.00000
    8     5     6     9      5  -10.46000   0.00000   1.04600   0.00000
    8     5     6    10      5  -10.46000   0.00000   1.04600   0.00000
    8     5     6    11      5  -10.46000   0.00000   1.04600   0.00000

[ pairs ]
;   ai   aj   func
    2     6      1
    2     7      1
    2     8      1
    3     6      1
    3     7      1
    3     8      1
    4     6      1
    4     7      1
    4     8      1
    1     9      1
    1    10      1
    1    11      1
    7     9      1
    7    10      1
    7    11      1
    8     9      1
    8    10      1
    8    11      1

