[ moleculetype ]
; Name   nrexcl
P4     3
[ atoms ]
;  nr  type  resnr  resid  atom  cgnr  charge    mass    total_charge
1   4HC    1    P4    H36    1    0.060   1.0080
2    4C    1    P4     C1    1   -0.180  12.0110
3   4HC    1    P4    H34    1    0.060   1.0080
4   4HC    1    P4    H35    1    0.060   1.0080
5    4C    1    P4     C2    1   -0.120  12.0110
6   4HC    1    P4    H37    1    0.060   1.0080
7   4HC    1    P4    H38    1    0.060   1.0080
8    4C    1    P4     C3    1   -0.120  12.0110
9   4HC    1    P4    H39    1    0.060   1.0080
10   4HC    1    P4    H40    1    0.060   1.0080 
11    4C    1    P4     C4    2   -0.120  12.0110
12   4HC    1    P4    H41    2    0.060   1.0080
13   4HC    1    P4    H42    2    0.060   1.0080
14    4C    1    P4     C5    2   -0.120  12.0110
15   4HC    1    P4    H43    2    0.060   1.0080
16   4HC    1    P4    H44    2    0.060   1.0080
17    4C    1    P4     C6    2   -0.120  12.0110
18   4HC    1    P4    H45    2    0.060   1.0080
19   4HC    1    P4    H46    2    0.060   1.0080 
20    4C    1    P4     C7    3   -0.120  12.0110
21   4HC    1    P4    H47    3    0.060   1.0080
22   4HC    1    P4    H48    3    0.060   1.0080
23    4C    1    P4     C8    3   -0.120  12.0110
24   4HC    1    P4    H49    3    0.060   1.0080
25   4HC    1    P4    H50    3    0.060   1.0080
26    4C    1    P4     C9    3   -0.120  12.0110
27   4HC    1    P4    H51    3    0.060   1.0080
28   4HC    1    P4    H52    3    0.060   1.0080   
29    4C    1    P4    C10    4   -0.120  12.0110
30   4HC    1    P4    H53    4    0.060   1.0080
31   4HC    1    P4    H54    4    0.060   1.0080
32    4C    1    P4    C11    4   -0.120  12.0110
33   4HC    1    P4    H55    4    0.060   1.0080
34   4HC    1    P4    H56    4    0.060   1.0080     
35    4C    1    P4    C12    5   -0.120  12.0110
36   4HC    1    P4    H57    5    0.060   1.0080
37   4HC    1    P4    H58    5    0.060   1.0080
38    4C    1    P4    C13    5    0.010  12.0110
39   4HC    1    P4    H59    5    0.060   1.0080
40   4HC    1    P4    H60    5    0.060   1.0080
41    4C    1    P4    C14    5   -0.310  12.0110
42   4HC    1    P4    H61    5    0.130   1.0080
43   4HC    1    P4    H62    5    0.130   1.0080 
44     P    1    P4    P15    6    0.680  30.9738
45    4C    1    P4    C16    6   -0.310  12.0110
46   4HC    1    P4    H63    6    0.130   1.0080
47   4HC    1    P4    H64    6    0.130   1.0080
48    4C    1    P4    C22    6   -0.310  12.0110
49   4HC    1    P4    H76    6    0.130   1.0080
50   4HC    1    P4    H77    6    0.130   1.0080  
51    4C    1    P4    C28    7   -0.310  12.0110
52   4HC    1    P4    H89    7    0.130   1.0080
53   4HC    1    P4    H90    7    0.130   1.0080
54    4C    1    P4    C29    7    0.010  12.0110
55   4HC    1    P4    H91    7    0.060   1.0080
56   4HC    1    P4    H92    7    0.060   1.0080
57    4C    1    P4    C30    7   -0.120  12.0110
58   4HC    1    P4    H93    7    0.060   1.0080
59   4HC    1    P4    H94    7    0.060   1.0080   
60    4C    1    P4    C31    8   -0.120  12.0110
61   4HC    1    P4    H95    8    0.060   1.0080
62   4HC    1    P4    H96    8    0.060   1.0080
63    4C    1    P4    C32    8   -0.120  12.0110
64   4HC    1    P4    H97    8    0.060   1.0080
65   4HC    1    P4    H98    8    0.060   1.0080
66    4C    1    P4    C33    8   -0.180  12.0110
67   4HC    1    P4    H99    8    0.060   1.0080
68   4HC    1    P4   H100    8    0.060   1.0080
69   4HC    1    P4   H101    8    0.060   1.0080 
70    4C    1    P4    C17    9    0.010  12.0110
71   4HC    1    P4    H65    9    0.060   1.0080
72   4HC    1    P4    H66    9    0.060   1.0080
73    4C    1    P4    C18    9   -0.120  12.0110
74   4HC    1    P4    H67    9    0.060   1.0080
75   4HC    1    P4    H68    9    0.060   1.0080
76    4C    1    P4    C19    9   -0.120  12.0110
77   4HC    1    P4    H69    9    0.060   1.0080
78   4HC    1    P4    H70    9    0.060   1.0080   
79    4C    1    P4    C20   10   -0.120  12.0110
80   4HC    1    P4    H71   10    0.060   1.0080
81   4HC    1    P4    H72   10    0.060   1.0080
82    4C    1    P4    C21   10   -0.180  12.0110
83   4HC    1    P4    H73   10    0.060   1.0080
84   4HC    1    P4    H74   10    0.060   1.0080
85   4HC    1    P4    H75   10    0.060   1.0080    
86    4C    1    P4    C23   11    0.010  12.0110
87   4HC    1    P4    H78   11    0.060   1.0080
88   4HC    1    P4    H79   11    0.060   1.0080
89    4C    1    P4    C24   11   -0.120  12.0110
90   4HC    1    P4    H80   11    0.060   1.0080
91   4HC    1    P4    H81   11    0.060   1.0080
92    4C    1    P4    C25   11   -0.120  12.0110
93   4HC    1    P4    H82   11    0.060   1.0080
94   4HC    1    P4    H83   11    0.060   1.0080  
95    4C    1    P4    C26   12   -0.120  12.0110
96   4HC    1    P4    H84   12    0.060   1.0080
97   4HC    1    P4    H85   12    0.060   1.0080
98    4C    1    P4    C27   12   -0.180  12.0110
99   4HC    1    P4    H86   12    0.060   1.0080
100   4HC    1    P4    H87   12    0.060   1.0080
101   4HC    1    P4    H88   12    0.060   1.0080    
; total charge of the molecule:   1.000
[ bonds ]
;  ai   aj  funct   c0         c1
41 44 1 0.181000 355000.000000 
44 45 1 0.181000 355000.000000 
44 48 1 0.181000 355000.000000 
44 51 1 0.181000 355000.000000 
2 5 1 0.153000 224200.000000 
5 8 1 0.153000 224200.000000 
8 11 1 0.153000 224200.000000 
11 14 1 0.153000 224200.000000 
14 17 1 0.153000 224200.000000 
17 20 1 0.153000 224200.000000 
20 23 1 0.153000 224200.000000 
23 26 1 0.153000 224200.000000 
26 29 1 0.153000 224200.000000 
29 32 1 0.153000 224200.000000 
32 35 1 0.153000 224200.000000 
35 38 1 0.153000 224200.000000 
38 41 1 0.153000 224200.000000 
45 70 1 0.153000 224200.000000 
48 86 1 0.153000 224200.000000 
51 54 1 0.153000 224200.000000 
54 57 1 0.153000 224200.000000 
57 60 1 0.153000 224200.000000 
60 63 1 0.153000 224200.000000 
63 66 1 0.153000 224200.000000 
70 73 1 0.153000 224200.000000 
73 76 1 0.153000 224200.000000 
76 79 1 0.153000 224200.000000 
79 82 1 0.153000 224200.000000 
86 89 1 0.153000 224200.000000 
89 92 1 0.153000 224200.000000 
92 95 1 0.153000 224200.000000 
95 98 1 0.153000 224200.000000 
1 2 1 0.109000 284500.000000 
2 3 1 0.109000 284500.000000 
2 4 1 0.109000 284500.000000 
5 6 1 0.109000 284500.000000 
5 7 1 0.109000 284500.000000 
8 9 1 0.109000 284500.000000 
8 10 1 0.109000 284500.000000 
11 12 1 0.109000 284500.000000 
11 13 1 0.109000 284500.000000 
14 15 1 0.109000 284500.000000 
14 16 1 0.109000 284500.000000 
17 18 1 0.109000 284500.000000 
17 19 1 0.109000 284500.000000 
20 21 1 0.109000 284500.000000 
20 22 1 0.109000 284500.000000 
23 24 1 0.109000 284500.000000 
23 25 1 0.109000 284500.000000 
26 27 1 0.109000 284500.000000 
26 28 1 0.109000 284500.000000 
29 30 1 0.109000 284500.000000 
29 31 1 0.109000 284500.000000 
32 33 1 0.109000 284500.000000 
32 34 1 0.109000 284500.000000 
35 36 1 0.109000 284500.000000 
35 37 1 0.109000 284500.000000 
38 39 1 0.109000 284500.000000 
38 40 1 0.109000 284500.000000 
41 42 1 0.109000 284500.000000 
41 43 1 0.109000 284500.000000 
45 46 1 0.109000 284500.000000 
45 47 1 0.109000 284500.000000 
48 49 1 0.109000 284500.000000 
48 50 1 0.109000 284500.000000 
51 52 1 0.109000 284500.000000 
51 53 1 0.109000 284500.000000 
54 55 1 0.109000 284500.000000 
54 56 1 0.109000 284500.000000 
57 58 1 0.109000 284500.000000 
57 59 1 0.109000 284500.000000 
60 61 1 0.109000 284500.000000 
60 62 1 0.109000 284500.000000 
63 64 1 0.109000 284500.000000 
63 65 1 0.109000 284500.000000 
66 67 1 0.109000 284500.000000 
66 68 1 0.109000 284500.000000 
66 69 1 0.109000 284500.000000 
70 71 1 0.109000 284500.000000 
70 72 1 0.109000 284500.000000 
73 74 1 0.109000 284500.000000 
73 75 1 0.109000 284500.000000 
76 77 1 0.109000 284500.000000 
76 78 1 0.109000 284500.000000 
79 80 1 0.109000 284500.000000 
79 81 1 0.109000 284500.000000 
82 83 1 0.109000 284500.000000 
82 84 1 0.109000 284500.000000 
82 85 1 0.109000 284500.000000 
86 87 1 0.109000 284500.000000 
86 88 1 0.109000 284500.000000 
89 90 1 0.109000 284500.000000 
89 91 1 0.109000 284500.000000 
92 93 1 0.109000 284500.000000 
92 94 1 0.109000 284500.000000 
95 96 1 0.109000 284500.000000 
95 97 1 0.109000 284500.000000 
98 99 1 0.109000 284500.000000 
98 100 1 0.109000 284500.000000 
98 101 1 0.109000 284500.000000 

[ pairs ]
;  ai   aj  funct  ;  all 1-4 pairs but the ones excluded in GROMOS itp
1    6    1
1    7    1
1    8    1
2    9    1
2   10    1
2   11    1
3    6    1
3    7    1
3    8    1
4    6    1
4    7    1
4    8    1
5   12    1
5   13    1
5   14    1
6    9    1
6   10    1
6   11    1
7    9    1
7   10    1
7   11    1
8   15    1
8   16    1
8   17    1
9   12    1
9   13    1
9   14    1
10   12    1
10   13    1
10   14    1
11   18    1
11   19    1
11   20    1
12   15    1
12   16    1
12   17    1
13   15    1
13   16    1
13   17    1
14   21    1
14   22    1
14   23    1
15   18    1
15   19    1
15   20    1
16   18    1
16   19    1
16   20    1
17   24    1
17   25    1
17   26    1
18   21    1
18   22    1
18   23    1
19   21    1
19   22    1
19   23    1
20   27    1
20   28    1
20   29    1
21   24    1
21   25    1
21   26    1
22   24    1
22   25    1
22   26    1
23   30    1
23   31    1
23   32    1
24   27    1
24   28    1
24   29    1
25   27    1
25   28    1
25   29    1
26   33    1
26   34    1
26   35    1
27   30    1
27   31    1
27   32    1
28   30    1
28   31    1
28   32    1
29   36    1
29   37    1
29   38    1
30   33    1
30   34    1
30   35    1
31   33    1
31   34    1
31   35    1
32   39    1
32   40    1
32   41    1
33   36    1
33   37    1
33   38    1
34   36    1
34   37    1
34   38    1
35   42    1
35   43    1
35   44    1
36   39    1
36   40    1
36   41    1
37   39    1
37   40    1
37   41    1
38   45    1
38   48    1
38   51    1
39   42    1
39   43    1
39   44    1
40   42    1
40   43    1
40   44    1
41   46    1
41   47    1
41   49    1
41   50    1
41   52    1
41   53    1
41   54    1
41   70    1
41   86    1
42   45    1
42   48    1
42   51    1
43   45    1
43   48    1
43   51    1
44   55    1
44   56    1
44   57    1
44   71    1
44   72    1
44   73    1
44   87    1
44   88    1
44   89    1
45   49    1
45   50    1
45   52    1
45   53    1
45   54    1
45   74    1
45   75    1
45   76    1
45   86    1
46   48    1
46   51    1
46   71    1
46   72    1
46   73    1
47   48    1
47   51    1
47   71    1
47   72    1
47   73    1
48   52    1
48   53    1
48   54    1
48   70    1
48   90    1
48   91    1
48   92    1
49   51    1
49   87    1
49   88    1
49   89    1
50   51    1
50   87    1
50   88    1
50   89    1
51   58    1
51   59    1
51   60    1
51   70    1
51   86    1
52   55    1
52   56    1
52   57    1
53   55    1
53   56    1
53   57    1
54   61    1
54   62    1
54   63    1
55   58    1
55   59    1
55   60    1
56   58    1
56   59    1
56   60    1
57   64    1
57   65    1
57   66    1
58   61    1
58   62    1
58   63    1
59   61    1
59   62    1
59   63    1
60   67    1
60   68    1
60   69    1
61   64    1
61   65    1
61   66    1
62   64    1
62   65    1
62   66    1
64   67    1
64   68    1
64   69    1
65   67    1
65   68    1
65   69    1
70   77    1
70   78    1
70   79    1
71   74    1
71   75    1
71   76    1
72   74    1
72   75    1
72   76    1
73   80    1
73   81    1
73   82    1
74   77    1
74   78    1
74   79    1
75   77    1
75   78    1
75   79    1
76   83    1
76   84    1
76   85    1
77   80    1
77   81    1
77   82    1
78   80    1
78   81    1
78   82    1
80   83    1
80   84    1
80   85    1
81   83    1
81   84    1
81   85    1
86   93    1
86   94    1
86   95    1
87   90    1
87   91    1
87   92    1
88   90    1
88   91    1
88   92    1
89   96    1
89   97    1
89   98    1
90   93    1
90   94    1
90   95    1
91   93    1
91   94    1
91   95    1
92   99    1
92  100    1
92  101    1
93   96    1
93   97    1
93   98    1
94   96    1
94   97    1
94   98    1
96   99    1
96  100    1
96  101    1
97   99    1
97  100    1
97  101    1
[ angles ]
;  ai   aj   ak  funct   angle     fc
2 5 8 2 112.700000 488.300000
5 8 11 2 112.700000 488.300000
8 11 14 2 112.700000 488.300000
11 14 17 2 112.700000 488.300000
14 17 20 2 112.700000 488.300000
17 20 23 2 112.700000 488.300000
20 23 26 2 112.700000 488.300000
23 26 29 2 112.700000 488.300000
26 29 32 2 112.700000 488.300000
29 32 35 2 112.700000 488.300000
32 35 38 2 112.700000 488.300000
35 38 41 2 112.700000 488.300000
51 54 57 2 112.700000 488.300000
54 57 60 2 112.700000 488.300000
57 60 63 2 112.700000 488.300000
60 63 66 2 112.700000 488.300000
45 70 73 2 112.700000 488.300000
70 73 76 2 112.700000 488.300000
73 76 79 2 112.700000 488.300000
76 79 82 2 112.700000 488.300000
48 86 89 2 112.700000 488.300000
86 89 92 2 112.700000 488.300000
89 92 95 2 112.700000 488.300000
92 95 98 2 112.700000 488.300000
38 41 44 2 115.200000 509.100000
44 45 70 2 115.200000 509.100000
44 48 86 2 115.200000 509.100000
44 51 54 2 115.200000 509.100000
41 44 45 2 109.500000 607.800000
41 44 48 2 109.500000 607.800000
41 44 51 2 109.500000 607.800000
45 44 48 2 109.500000 607.800000
45 44 51 2 109.500000 607.800000
48 44 51 2 109.500000 607.800000
1 2 3 2 107.800000 276.100000
1 2 4 2 107.800000 276.100000
3 2 4 2 107.800000 276.100000
6 5 7 2 107.800000 276.100000
9 8 10 2 107.800000 276.100000
12 11 13 2 107.800000 276.100000
15 14 16 2 107.800000 276.100000
18 17 19 2 107.800000 276.100000
21 20 22 2 107.800000 276.100000
24 23 25 2 107.800000 276.100000
27 26 28 2 107.800000 276.100000
30 29 31 2 107.800000 276.100000
33 32 34 2 107.800000 276.100000
36 35 37 2 107.800000 276.100000
39 38 40 2 107.800000 276.100000
42 41 43 2 107.800000 276.100000
46 45 47 2 107.800000 276.100000
49 48 50 2 107.800000 276.100000
52 51 53 2 107.800000 276.100000
55 54 56 2 107.800000 276.100000
58 57 59 2 107.800000 276.100000
61 60 62 2 107.800000 276.100000
64 63 65 2 107.800000 276.100000
67 66 68 2 107.800000 276.100000
67 66 69 2 107.800000 276.100000
68 66 69 2 107.800000 276.100000
71 70 72 2 107.800000 276.100000
74 73 75 2 107.800000 276.100000
77 76 78 2 107.800000 276.100000
80 79 81 2 107.800000 276.100000
83 82 84 2 107.800000 276.100000
83 82 85 2 107.800000 276.100000
84 82 85 2 107.800000 276.100000
87 86 88 2 107.800000 276.100000
90 89 91 2 107.800000 276.100000
93 92 94 2 107.800000 276.100000
96 95 97 2 107.800000 276.100000
99 98 100 2 107.800000 276.100000
99 98 101 2 107.800000 276.100000
100 98 101 2 107.800000 276.100000
1 2 5 2 110.700000 313.800000
3 2 5 2 110.700000 313.800000
4 2 5 2 110.700000 313.800000
2 5 6 2 110.700000 313.800000
2 5 7 2 110.700000 313.800000
6 5 8 2 110.700000 313.800000
7 5 8 2 110.700000 313.800000
5 8 9 2 110.700000 313.800000
5 8 10 2 110.700000 313.800000
9 8 11 2 110.700000 313.800000
10 8 11 2 110.700000 313.800000
8 11 12 2 110.700000 313.800000
8 11 13 2 110.700000 313.800000
12 11 14 2 110.700000 313.800000
13 11 14 2 110.700000 313.800000
11 14 15 2 110.700000 313.800000
11 14 16 2 110.700000 313.800000
15 14 17 2 110.700000 313.800000
16 14 17 2 110.700000 313.800000
14 17 18 2 110.700000 313.800000
14 17 19 2 110.700000 313.800000
18 17 20 2 110.700000 313.800000
19 17 20 2 110.700000 313.800000
17 20 21 2 110.700000 313.800000
17 20 22 2 110.700000 313.800000
21 20 23 2 110.700000 313.800000
22 20 23 2 110.700000 313.800000
20 23 24 2 110.700000 313.800000
20 23 25 2 110.700000 313.800000
24 23 26 2 110.700000 313.800000
25 23 26 2 110.700000 313.800000
23 26 27 2 110.700000 313.800000
23 26 28 2 110.700000 313.800000
27 26 29 2 110.700000 313.800000
28 26 29 2 110.700000 313.800000
26 29 30 2 110.700000 313.800000
26 29 31 2 110.700000 313.800000
30 29 32 2 110.700000 313.800000
31 29 32 2 110.700000 313.800000
29 32 33 2 110.700000 313.800000
29 32 34 2 110.700000 313.800000
33 32 35 2 110.700000 313.800000
34 32 35 2 110.700000 313.800000
32 35 36 2 110.700000 313.800000
32 35 37 2 110.700000 313.800000
36 35 38 2 110.700000 313.800000
37 35 38 2 110.700000 313.800000
35 38 39 2 110.700000 313.800000
35 38 40 2 110.700000 313.800000
39 38 41 2 110.700000 313.800000
40 38 41 2 110.700000 313.800000
38 41 42 2 110.700000 313.800000
38 41 43 2 110.700000 313.800000
46 45 70 2 110.700000 313.800000
47 45 70 2 110.700000 313.800000
49 48 86 2 110.700000 313.800000
50 48 86 2 110.700000 313.800000
52 51 54 2 110.700000 313.800000
53 51 54 2 110.700000 313.800000
51 54 55 2 110.700000 313.800000
51 54 56 2 110.700000 313.800000
55 54 57 2 110.700000 313.800000
56 54 57 2 110.700000 313.800000
54 57 58 2 110.700000 313.800000
54 57 59 2 110.700000 313.800000
58 57 60 2 110.700000 313.800000
59 57 60 2 110.700000 313.800000
57 60 61 2 110.700000 313.800000
57 60 62 2 110.700000 313.800000
61 60 63 2 110.700000 313.800000
62 60 63 2 110.700000 313.800000
60 63 64 2 110.700000 313.800000
60 63 65 2 110.700000 313.800000
64 63 66 2 110.700000 313.800000
65 63 66 2 110.700000 313.800000
63 66 67 2 110.700000 313.800000
63 66 68 2 110.700000 313.800000
63 66 69 2 110.700000 313.800000
45 70 71 2 110.700000 313.800000
45 70 72 2 110.700000 313.800000
71 70 73 2 110.700000 313.800000
72 70 73 2 110.700000 313.800000
70 73 74 2 110.700000 313.800000
70 73 75 2 110.700000 313.800000
74 73 76 2 110.700000 313.800000
75 73 76 2 110.700000 313.800000
73 76 77 2 110.700000 313.800000
73 76 78 2 110.700000 313.800000
77 76 79 2 110.700000 313.800000
78 76 79 2 110.700000 313.800000
76 79 80 2 110.700000 313.800000
76 79 81 2 110.700000 313.800000
80 79 82 2 110.700000 313.800000
81 79 82 2 110.700000 313.800000
79 82 83 2 110.700000 313.800000
79 82 84 2 110.700000 313.800000
79 82 85 2 110.700000 313.800000
48 86 87 2 110.700000 313.800000
48 86 88 2 110.700000 313.800000
87 86 89 2 110.700000 313.800000
88 86 89 2 110.700000 313.800000
86 89 90 2 110.700000 313.800000
86 89 91 2 110.700000 313.800000
90 89 92 2 110.700000 313.800000
91 89 92 2 110.700000 313.800000
89 92 93 2 110.700000 313.800000
89 92 94 2 110.700000 313.800000
93 92 95 2 110.700000 313.800000
94 92 95 2 110.700000 313.800000
92 95 96 2 110.700000 313.800000
92 95 97 2 110.700000 313.800000
96 95 98 2 110.700000 313.800000
97 95 98 2 110.700000 313.800000
95 98 99 2 110.700000 313.800000
95 98 100 2 110.700000 313.800000
95 98 101 2 110.700000 313.800000
44 45 46 2 115.200000 509.100000
44 45 47 2 115.200000 509.100000
44 48 49 2 115.200000 509.100000
44 48 50 2 115.200000 509.100000
44 51 52 2 115.200000 509.100000
44 51 53 2 115.200000 509.100000
42 41 44 2 115.200000 509.100000
43 41 44 2 115.200000 509.100000
[ dihedrals ]
2 5 8 11 3 5.439200 -0.209200 0.836800 0.000000 0.000000 0.000000
5 8 11 14 3 5.439200 -0.209200 0.836800 0.000000 0.000000 0.000000
8 11 14 17 3 5.439200 -0.209200 0.836800 0.000000 0.000000 0.000000
11 8 5 2 3 5.439200 -0.209200 0.836800 0.000000 0.000000 0.000000
11 14 17 20 3 5.439200 -0.209200 0.836800 0.000000 0.000000 0.000000
14 11 8 5 3 5.439200 -0.209200 0.836800 0.000000 0.000000 0.000000
14 17 20 23 3 5.439200 -0.209200 0.836800 0.000000 0.000000 0.000000
17 14 11 8 3 5.439200 -0.209200 0.836800 0.000000 0.000000 0.000000
17 20 23 26 3 5.439200 -0.209200 0.836800 0.000000 0.000000 0.000000
20 17 14 11 3 5.439200 -0.209200 0.836800 0.000000 0.000000 0.000000
20 23 26 29 3 5.439200 -0.209200 0.836800 0.000000 0.000000 0.000000
23 20 17 14 3 5.439200 -0.209200 0.836800 0.000000 0.000000 0.000000
23 26 29 32 3 5.439200 -0.209200 0.836800 0.000000 0.000000 0.000000
26 23 20 17 3 5.439200 -0.209200 0.836800 0.000000 0.000000 0.000000
26 29 32 35 3 5.439200 -0.209200 0.836800 0.000000 0.000000 0.000000
29 26 23 20 3 5.439200 -0.209200 0.836800 0.000000 0.000000 0.000000
29 32 35 38 3 5.439200 -0.209200 0.836800 0.000000 0.000000 0.000000
32 29 26 23 3 5.439200 -0.209200 0.836800 0.000000 0.000000 0.000000
32 35 38 41 3 5.439200 -0.209200 0.836800 0.000000 0.000000 0.000000
35 32 29 26 3 5.439200 -0.209200 0.836800 0.000000 0.000000 0.000000
38 35 32 29 3 5.439200 -0.209200 0.836800 0.000000 0.000000 0.000000
41 38 35 32 3 5.439200 -0.209200 0.836800 0.000000 0.000000 0.000000
45 70 73 76 3 5.439200 -0.209200 0.836800 0.000000 0.000000 0.000000
48 86 89 92 3 5.439200 -0.209200 0.836800 0.000000 0.000000 0.000000
51 54 57 60 3 5.439200 -0.209200 0.836800 0.000000 0.000000 0.000000
54 57 60 63 3 5.439200 -0.209200 0.836800 0.000000 0.000000 0.000000
57 60 63 66 3 5.439200 -0.209200 0.836800 0.000000 0.000000 0.000000
60 57 54 51 3 5.439200 -0.209200 0.836800 0.000000 0.000000 0.000000
63 60 57 54 3 5.439200 -0.209200 0.836800 0.000000 0.000000 0.000000
66 63 60 57 3 5.439200 -0.209200 0.836800 0.000000 0.000000 0.000000
70 73 76 79 3 5.439200 -0.209200 0.836800 0.000000 0.000000 0.000000
73 76 79 82 3 5.439200 -0.209200 0.836800 0.000000 0.000000 0.000000
76 73 70 45 3 5.439200 -0.209200 0.836800 0.000000 0.000000 0.000000
79 76 73 70 3 5.439200 -0.209200 0.836800 0.000000 0.000000 0.000000
82 79 76 73 3 5.439200 -0.209200 0.836800 0.000000 0.000000 0.000000
86 89 92 95 3 5.439200 -0.209200 0.836800 0.000000 0.000000 0.000000
89 92 95 98 3 5.439200 -0.209200 0.836800 0.000000 0.000000 0.000000
92 89 86 48 3 5.439200 -0.209200 0.836800 0.000000 0.000000 0.000000
95 92 89 86 3 5.439200 -0.209200 0.836800 0.000000 0.000000 0.000000
98 95 92 89 3 5.439200 -0.209200 0.836800 0.000000 0.000000 0.000000
1 2 5 8 3 0.000000 0.000000 1.255200 0.000000 0.000000 0.000000
2 5 8 9 3 0.000000 0.000000 1.255200 0.000000 0.000000 0.000000
2 5 8 10 3 0.000000 0.000000 1.255200 0.000000 0.000000 0.000000
3 2 5 8 3 0.000000 0.000000 1.255200 0.000000 0.000000 0.000000
4 2 5 8 3 0.000000 0.000000 1.255200 0.000000 0.000000 0.000000
5 8 11 12 3 0.000000 0.000000 1.255200 0.000000 0.000000 0.000000
5 8 11 13 3 0.000000 0.000000 1.255200 0.000000 0.000000 0.000000
6 5 8 11 3 0.000000 0.000000 1.255200 0.000000 0.000000 0.000000
7 5 8 11 3 0.000000 0.000000 1.255200 0.000000 0.000000 0.000000
8 5 2 1 3 0.000000 0.000000 1.255200 0.000000 0.000000 0.000000
8 5 2 3 3 0.000000 0.000000 1.255200 0.000000 0.000000 0.000000
8 5 2 4 3 0.000000 0.000000 1.255200 0.000000 0.000000 0.000000
8 11 14 15 3 0.000000 0.000000 1.255200 0.000000 0.000000 0.000000
8 11 14 16 3 0.000000 0.000000 1.255200 0.000000 0.000000 0.000000
9 8 5 2 3 0.000000 0.000000 1.255200 0.000000 0.000000 0.000000
9 8 11 14 3 0.000000 0.000000 1.255200 0.000000 0.000000 0.000000
10 8 5 2 3 0.000000 0.000000 1.255200 0.000000 0.000000 0.000000
10 8 11 14 3 0.000000 0.000000 1.255200 0.000000 0.000000 0.000000
11 8 5 6 3 0.000000 0.000000 1.255200 0.000000 0.000000 0.000000
11 8 5 7 3 0.000000 0.000000 1.255200 0.000000 0.000000 0.000000
11 14 17 18 3 0.000000 0.000000 1.255200 0.000000 0.000000 0.000000
11 14 17 19 3 0.000000 0.000000 1.255200 0.000000 0.000000 0.000000
12 11 8 5 3 0.000000 0.000000 1.255200 0.000000 0.000000 0.000000
12 11 14 17 3 0.000000 0.000000 1.255200 0.000000 0.000000 0.000000
13 11 8 5 3 0.000000 0.000000 1.255200 0.000000 0.000000 0.000000
13 11 14 17 3 0.000000 0.000000 1.255200 0.000000 0.000000 0.000000
14 11 8 9 3 0.000000 0.000000 1.255200 0.000000 0.000000 0.000000
14 11 8 10 3 0.000000 0.000000 1.255200 0.000000 0.000000 0.000000
14 17 20 21 3 0.000000 0.000000 1.255200 0.000000 0.000000 0.000000
14 17 20 22 3 0.000000 0.000000 1.255200 0.000000 0.000000 0.000000
15 14 11 8 3 0.000000 0.000000 1.255200 0.000000 0.000000 0.000000
15 14 17 20 3 0.000000 0.000000 1.255200 0.000000 0.000000 0.000000
16 14 11 8 3 0.000000 0.000000 1.255200 0.000000 0.000000 0.000000
16 14 17 20 3 0.000000 0.000000 1.255200 0.000000 0.000000 0.000000
17 14 11 12 3 0.000000 0.000000 1.255200 0.000000 0.000000 0.000000
17 14 11 13 3 0.000000 0.000000 1.255200 0.000000 0.000000 0.000000
17 20 23 24 3 0.000000 0.000000 1.255200 0.000000 0.000000 0.000000
17 20 23 25 3 0.000000 0.000000 1.255200 0.000000 0.000000 0.000000
18 17 14 11 3 0.000000 0.000000 1.255200 0.000000 0.000000 0.000000
18 17 20 23 3 0.000000 0.000000 1.255200 0.000000 0.000000 0.000000
19 17 14 11 3 0.000000 0.000000 1.255200 0.000000 0.000000 0.000000
19 17 20 23 3 0.000000 0.000000 1.255200 0.000000 0.000000 0.000000
20 17 14 15 3 0.000000 0.000000 1.255200 0.000000 0.000000 0.000000
20 17 14 16 3 0.000000 0.000000 1.255200 0.000000 0.000000 0.000000
20 23 26 27 3 0.000000 0.000000 1.255200 0.000000 0.000000 0.000000
20 23 26 28 3 0.000000 0.000000 1.255200 0.000000 0.000000 0.000000
21 20 17 14 3 0.000000 0.000000 1.255200 0.000000 0.000000 0.000000
21 20 23 26 3 0.000000 0.000000 1.255200 0.000000 0.000000 0.000000
22 20 17 14 3 0.000000 0.000000 1.255200 0.000000 0.000000 0.000000
22 20 23 26 3 0.000000 0.000000 1.255200 0.000000 0.000000 0.000000
23 20 17 18 3 0.000000 0.000000 1.255200 0.000000 0.000000 0.000000
23 20 17 19 3 0.000000 0.000000 1.255200 0.000000 0.000000 0.000000
23 26 29 30 3 0.000000 0.000000 1.255200 0.000000 0.000000 0.000000
23 26 29 31 3 0.000000 0.000000 1.255200 0.000000 0.000000 0.000000
24 23 20 17 3 0.000000 0.000000 1.255200 0.000000 0.000000 0.000000
24 23 26 29 3 0.000000 0.000000 1.255200 0.000000 0.000000 0.000000
25 23 20 17 3 0.000000 0.000000 1.255200 0.000000 0.000000 0.000000
25 23 26 29 3 0.000000 0.000000 1.255200 0.000000 0.000000 0.000000
26 23 20 21 3 0.000000 0.000000 1.255200 0.000000 0.000000 0.000000
26 23 20 22 3 0.000000 0.000000 1.255200 0.000000 0.000000 0.000000
26 29 32 33 3 0.000000 0.000000 1.255200 0.000000 0.000000 0.000000
26 29 32 34 3 0.000000 0.000000 1.255200 0.000000 0.000000 0.000000
27 26 23 20 3 0.000000 0.000000 1.255200 0.000000 0.000000 0.000000
27 26 29 32 3 0.000000 0.000000 1.255200 0.000000 0.000000 0.000000
28 26 23 20 3 0.000000 0.000000 1.255200 0.000000 0.000000 0.000000
28 26 29 32 3 0.000000 0.000000 1.255200 0.000000 0.000000 0.000000
29 26 23 24 3 0.000000 0.000000 1.255200 0.000000 0.000000 0.000000
29 26 23 25 3 0.000000 0.000000 1.255200 0.000000 0.000000 0.000000
29 32 35 36 3 0.000000 0.000000 1.255200 0.000000 0.000000 0.000000
29 32 35 37 3 0.000000 0.000000 1.255200 0.000000 0.000000 0.000000
30 29 26 23 3 0.000000 0.000000 1.255200 0.000000 0.000000 0.000000
30 29 32 35 3 0.000000 0.000000 1.255200 0.000000 0.000000 0.000000
31 29 26 23 3 0.000000 0.000000 1.255200 0.000000 0.000000 0.000000
31 29 32 35 3 0.000000 0.000000 1.255200 0.000000 0.000000 0.000000
32 29 26 27 3 0.000000 0.000000 1.255200 0.000000 0.000000 0.000000
32 29 26 28 3 0.000000 0.000000 1.255200 0.000000 0.000000 0.000000
32 35 38 39 3 0.000000 0.000000 1.255200 0.000000 0.000000 0.000000
32 35 38 40 3 0.000000 0.000000 1.255200 0.000000 0.000000 0.000000
33 32 29 26 3 0.000000 0.000000 1.255200 0.000000 0.000000 0.000000
33 32 35 38 3 0.000000 0.000000 1.255200 0.000000 0.000000 0.000000
34 32 29 26 3 0.000000 0.000000 1.255200 0.000000 0.000000 0.000000
34 32 35 38 3 0.000000 0.000000 1.255200 0.000000 0.000000 0.000000
35 32 29 30 3 0.000000 0.000000 1.255200 0.000000 0.000000 0.000000
35 32 29 31 3 0.000000 0.000000 1.255200 0.000000 0.000000 0.000000
35 38 41 42 3 0.000000 0.000000 1.255200 0.000000 0.000000 0.000000
35 38 41 43 3 0.000000 0.000000 1.255200 0.000000 0.000000 0.000000
36 35 32 29 3 0.000000 0.000000 1.255200 0.000000 0.000000 0.000000
36 35 38 41 3 0.000000 0.000000 1.255200 0.000000 0.000000 0.000000
37 35 32 29 3 0.000000 0.000000 1.255200 0.000000 0.000000 0.000000
37 35 38 41 3 0.000000 0.000000 1.255200 0.000000 0.000000 0.000000
38 35 32 33 3 0.000000 0.000000 1.255200 0.000000 0.000000 0.000000
38 35 32 34 3 0.000000 0.000000 1.255200 0.000000 0.000000 0.000000
39 38 35 32 3 0.000000 0.000000 1.255200 0.000000 0.000000 0.000000
40 38 35 32 3 0.000000 0.000000 1.255200 0.000000 0.000000 0.000000
41 38 35 36 3 0.000000 0.000000 1.255200 0.000000 0.000000 0.000000
41 38 35 37 3 0.000000 0.000000 1.255200 0.000000 0.000000 0.000000
42 41 38 35 3 0.000000 0.000000 1.255200 0.000000 0.000000 0.000000
43 41 38 35 3 0.000000 0.000000 1.255200 0.000000 0.000000 0.000000
45 70 73 74 3 0.000000 0.000000 1.255200 0.000000 0.000000 0.000000
45 70 73 75 3 0.000000 0.000000 1.255200 0.000000 0.000000 0.000000
46 45 70 73 3 0.000000 0.000000 1.255200 0.000000 0.000000 0.000000
47 45 70 73 3 0.000000 0.000000 1.255200 0.000000 0.000000 0.000000
48 86 89 90 3 0.000000 0.000000 1.255200 0.000000 0.000000 0.000000
48 86 89 91 3 0.000000 0.000000 1.255200 0.000000 0.000000 0.000000
49 48 86 89 3 0.000000 0.000000 1.255200 0.000000 0.000000 0.000000
50 48 86 89 3 0.000000 0.000000 1.255200 0.000000 0.000000 0.000000
51 54 57 58 3 0.000000 0.000000 1.255200 0.000000 0.000000 0.000000
51 54 57 59 3 0.000000 0.000000 1.255200 0.000000 0.000000 0.000000
52 51 54 57 3 0.000000 0.000000 1.255200 0.000000 0.000000 0.000000
53 51 54 57 3 0.000000 0.000000 1.255200 0.000000 0.000000 0.000000
54 57 60 61 3 0.000000 0.000000 1.255200 0.000000 0.000000 0.000000
54 57 60 62 3 0.000000 0.000000 1.255200 0.000000 0.000000 0.000000
55 54 57 60 3 0.000000 0.000000 1.255200 0.000000 0.000000 0.000000
56 54 57 60 3 0.000000 0.000000 1.255200 0.000000 0.000000 0.000000
57 54 51 52 3 0.000000 0.000000 1.255200 0.000000 0.000000 0.000000
57 54 51 53 3 0.000000 0.000000 1.255200 0.000000 0.000000 0.000000
57 60 63 64 3 0.000000 0.000000 1.255200 0.000000 0.000000 0.000000
57 60 63 65 3 0.000000 0.000000 1.255200 0.000000 0.000000 0.000000
58 57 54 51 3 0.000000 0.000000 1.255200 0.000000 0.000000 0.000000
58 57 60 63 3 0.000000 0.000000 1.255200 0.000000 0.000000 0.000000
59 57 54 51 3 0.000000 0.000000 1.255200 0.000000 0.000000 0.000000
59 57 60 63 3 0.000000 0.000000 1.255200 0.000000 0.000000 0.000000
60 57 54 55 3 0.000000 0.000000 1.255200 0.000000 0.000000 0.000000
60 57 54 56 3 0.000000 0.000000 1.255200 0.000000 0.000000 0.000000
60 63 66 67 3 0.000000 0.000000 1.255200 0.000000 0.000000 0.000000
60 63 66 68 3 0.000000 0.000000 1.255200 0.000000 0.000000 0.000000
60 63 66 69 3 0.000000 0.000000 1.255200 0.000000 0.000000 0.000000
61 60 57 54 3 0.000000 0.000000 1.255200 0.000000 0.000000 0.000000
61 60 63 66 3 0.000000 0.000000 1.255200 0.000000 0.000000 0.000000
62 60 57 54 3 0.000000 0.000000 1.255200 0.000000 0.000000 0.000000
62 60 63 66 3 0.000000 0.000000 1.255200 0.000000 0.000000 0.000000
63 60 57 58 3 0.000000 0.000000 1.255200 0.000000 0.000000 0.000000
63 60 57 59 3 0.000000 0.000000 1.255200 0.000000 0.000000 0.000000
64 63 60 57 3 0.000000 0.000000 1.255200 0.000000 0.000000 0.000000
65 63 60 57 3 0.000000 0.000000 1.255200 0.000000 0.000000 0.000000
66 63 60 61 3 0.000000 0.000000 1.255200 0.000000 0.000000 0.000000
66 63 60 62 3 0.000000 0.000000 1.255200 0.000000 0.000000 0.000000
67 66 63 60 3 0.000000 0.000000 1.255200 0.000000 0.000000 0.000000
68 66 63 60 3 0.000000 0.000000 1.255200 0.000000 0.000000 0.000000
69 66 63 60 3 0.000000 0.000000 1.255200 0.000000 0.000000 0.000000
70 73 76 77 3 0.000000 0.000000 1.255200 0.000000 0.000000 0.000000
70 73 76 78 3 0.000000 0.000000 1.255200 0.000000 0.000000 0.000000
71 70 73 76 3 0.000000 0.000000 1.255200 0.000000 0.000000 0.000000
72 70 73 76 3 0.000000 0.000000 1.255200 0.000000 0.000000 0.000000
73 70 45 46 3 0.000000 0.000000 1.255200 0.000000 0.000000 0.000000
73 70 45 47 3 0.000000 0.000000 1.255200 0.000000 0.000000 0.000000
73 76 79 80 3 0.000000 0.000000 1.255200 0.000000 0.000000 0.000000
73 76 79 81 3 0.000000 0.000000 1.255200 0.000000 0.000000 0.000000
74 73 70 45 3 0.000000 0.000000 1.255200 0.000000 0.000000 0.000000
74 73 76 79 3 0.000000 0.000000 1.255200 0.000000 0.000000 0.000000
75 73 70 45 3 0.000000 0.000000 1.255200 0.000000 0.000000 0.000000
75 73 76 79 3 0.000000 0.000000 1.255200 0.000000 0.000000 0.000000
76 73 70 71 3 0.000000 0.000000 1.255200 0.000000 0.000000 0.000000
76 73 70 72 3 0.000000 0.000000 1.255200 0.000000 0.000000 0.000000
76 79 82 83 3 0.000000 0.000000 1.255200 0.000000 0.000000 0.000000
76 79 82 84 3 0.000000 0.000000 1.255200 0.000000 0.000000 0.000000
76 79 82 85 3 0.000000 0.000000 1.255200 0.000000 0.000000 0.000000
77 76 73 70 3 0.000000 0.000000 1.255200 0.000000 0.000000 0.000000
77 76 79 82 3 0.000000 0.000000 1.255200 0.000000 0.000000 0.000000
78 76 73 70 3 0.000000 0.000000 1.255200 0.000000 0.000000 0.000000
78 76 79 82 3 0.000000 0.000000 1.255200 0.000000 0.000000 0.000000
79 76 73 74 3 0.000000 0.000000 1.255200 0.000000 0.000000 0.000000
79 76 73 75 3 0.000000 0.000000 1.255200 0.000000 0.000000 0.000000
80 79 76 73 3 0.000000 0.000000 1.255200 0.000000 0.000000 0.000000
81 79 76 73 3 0.000000 0.000000 1.255200 0.000000 0.000000 0.000000
82 79 76 77 3 0.000000 0.000000 1.255200 0.000000 0.000000 0.000000
82 79 76 78 3 0.000000 0.000000 1.255200 0.000000 0.000000 0.000000
83 82 79 76 3 0.000000 0.000000 1.255200 0.000000 0.000000 0.000000
84 82 79 76 3 0.000000 0.000000 1.255200 0.000000 0.000000 0.000000
85 82 79 76 3 0.000000 0.000000 1.255200 0.000000 0.000000 0.000000
86 89 92 93 3 0.000000 0.000000 1.255200 0.000000 0.000000 0.000000
86 89 92 94 3 0.000000 0.000000 1.255200 0.000000 0.000000 0.000000
87 86 89 92 3 0.000000 0.000000 1.255200 0.000000 0.000000 0.000000
88 86 89 92 3 0.000000 0.000000 1.255200 0.000000 0.000000 0.000000
89 86 48 49 3 0.000000 0.000000 1.255200 0.000000 0.000000 0.000000
89 86 48 50 3 0.000000 0.000000 1.255200 0.000000 0.000000 0.000000
89 92 95 96 3 0.000000 0.000000 1.255200 0.000000 0.000000 0.000000
89 92 95 97 3 0.000000 0.000000 1.255200 0.000000 0.000000 0.000000
90 89 86 48 3 0.000000 0.000000 1.255200 0.000000 0.000000 0.000000
90 89 92 95 3 0.000000 0.000000 1.255200 0.000000 0.000000 0.000000
91 89 86 48 3 0.000000 0.000000 1.255200 0.000000 0.000000 0.000000
91 89 92 95 3 0.000000 0.000000 1.255200 0.000000 0.000000 0.000000
92 89 86 87 3 0.000000 0.000000 1.255200 0.000000 0.000000 0.000000
92 89 86 88 3 0.000000 0.000000 1.255200 0.000000 0.000000 0.000000
92 95 98 99 3 0.000000 0.000000 1.255200 0.000000 0.000000 0.000000
92 95 98 100 3 0.000000 0.000000 1.255200 0.000000 0.000000 0.000000
92 95 98 101 3 0.000000 0.000000 1.255200 0.000000 0.000000 0.000000
93 92 89 86 3 0.000000 0.000000 1.255200 0.000000 0.000000 0.000000
93 92 95 98 3 0.000000 0.000000 1.255200 0.000000 0.000000 0.000000
94 92 89 86 3 0.000000 0.000000 1.255200 0.000000 0.000000 0.000000
94 92 95 98 3 0.000000 0.000000 1.255200 0.000000 0.000000 0.000000
95 92 89 90 3 0.000000 0.000000 1.255200 0.000000 0.000000 0.000000
95 92 89 91 3 0.000000 0.000000 1.255200 0.000000 0.000000 0.000000
96 95 92 89 3 0.000000 0.000000 1.255200 0.000000 0.000000 0.000000
97 95 92 89 3 0.000000 0.000000 1.255200 0.000000 0.000000 0.000000
98 95 92 93 3 0.000000 0.000000 1.255200 0.000000 0.000000 0.000000
98 95 92 94 3 0.000000 0.000000 1.255200 0.000000 0.000000 0.000000
99 98 95 92 3 0.000000 0.000000 1.255200 0.000000 0.000000 0.000000
100 98 95 92 3 0.000000 0.000000 1.255200 0.000000 0.000000 0.000000
101 98 95 92 3 0.000000 0.000000 1.255200 0.000000 0.000000 0.000000
1 2 5 6 3 0.000000 0.000000 1.255200 0.000000 0.000000 0.000000
1 2 5 7 3 0.000000 0.000000 1.255200 0.000000 0.000000 0.000000
3 2 5 6 3 0.000000 0.000000 1.255200 0.000000 0.000000 0.000000
3 2 5 7 3 0.000000 0.000000 1.255200 0.000000 0.000000 0.000000
4 2 5 6 3 0.000000 0.000000 1.255200 0.000000 0.000000 0.000000
4 2 5 7 3 0.000000 0.000000 1.255200 0.000000 0.000000 0.000000
6 5 2 1 3 0.000000 0.000000 1.255200 0.000000 0.000000 0.000000
6 5 2 3 3 0.000000 0.000000 1.255200 0.000000 0.000000 0.000000
6 5 2 4 3 0.000000 0.000000 1.255200 0.000000 0.000000 0.000000
6 5 8 9 3 0.000000 0.000000 1.255200 0.000000 0.000000 0.000000
6 5 8 10 3 0.000000 0.000000 1.255200 0.000000 0.000000 0.000000
7 5 2 1 3 0.000000 0.000000 1.255200 0.000000 0.000000 0.000000
7 5 2 3 3 0.000000 0.000000 1.255200 0.000000 0.000000 0.000000
7 5 2 4 3 0.000000 0.000000 1.255200 0.000000 0.000000 0.000000
7 5 8 9 3 0.000000 0.000000 1.255200 0.000000 0.000000 0.000000
7 5 8 10 3 0.000000 0.000000 1.255200 0.000000 0.000000 0.000000
9 8 5 6 3 0.000000 0.000000 1.255200 0.000000 0.000000 0.000000
9 8 5 7 3 0.000000 0.000000 1.255200 0.000000 0.000000 0.000000
9 8 11 12 3 0.000000 0.000000 1.255200 0.000000 0.000000 0.000000
9 8 11 13 3 0.000000 0.000000 1.255200 0.000000 0.000000 0.000000
10 8 5 6 3 0.000000 0.000000 1.255200 0.000000 0.000000 0.000000
10 8 5 7 3 0.000000 0.000000 1.255200 0.000000 0.000000 0.000000
10 8 11 12 3 0.000000 0.000000 1.255200 0.000000 0.000000 0.000000
10 8 11 13 3 0.000000 0.000000 1.255200 0.000000 0.000000 0.000000
12 11 8 9 3 0.000000 0.000000 1.255200 0.000000 0.000000 0.000000
12 11 8 10 3 0.000000 0.000000 1.255200 0.000000 0.000000 0.000000
12 11 14 15 3 0.000000 0.000000 1.255200 0.000000 0.000000 0.000000
12 11 14 16 3 0.000000 0.000000 1.255200 0.000000 0.000000 0.000000
13 11 8 9 3 0.000000 0.000000 1.255200 0.000000 0.000000 0.000000
13 11 8 10 3 0.000000 0.000000 1.255200 0.000000 0.000000 0.000000
13 11 14 15 3 0.000000 0.000000 1.255200 0.000000 0.000000 0.000000
13 11 14 16 3 0.000000 0.000000 1.255200 0.000000 0.000000 0.000000
15 14 11 12 3 0.000000 0.000000 1.255200 0.000000 0.000000 0.000000
15 14 11 13 3 0.000000 0.000000 1.255200 0.000000 0.000000 0.000000
15 14 17 18 3 0.000000 0.000000 1.255200 0.000000 0.000000 0.000000
15 14 17 19 3 0.000000 0.000000 1.255200 0.000000 0.000000 0.000000
16 14 11 12 3 0.000000 0.000000 1.255200 0.000000 0.000000 0.000000
16 14 11 13 3 0.000000 0.000000 1.255200 0.000000 0.000000 0.000000
16 14 17 18 3 0.000000 0.000000 1.255200 0.000000 0.000000 0.000000
16 14 17 19 3 0.000000 0.000000 1.255200 0.000000 0.000000 0.000000
18 17 14 15 3 0.000000 0.000000 1.255200 0.000000 0.000000 0.000000
18 17 14 16 3 0.000000 0.000000 1.255200 0.000000 0.000000 0.000000
18 17 20 21 3 0.000000 0.000000 1.255200 0.000000 0.000000 0.000000
18 17 20 22 3 0.000000 0.000000 1.255200 0.000000 0.000000 0.000000
19 17 14 15 3 0.000000 0.000000 1.255200 0.000000 0.000000 0.000000
19 17 14 16 3 0.000000 0.000000 1.255200 0.000000 0.000000 0.000000
19 17 20 21 3 0.000000 0.000000 1.255200 0.000000 0.000000 0.000000
19 17 20 22 3 0.000000 0.000000 1.255200 0.000000 0.000000 0.000000
21 20 17 18 3 0.000000 0.000000 1.255200 0.000000 0.000000 0.000000
21 20 17 19 3 0.000000 0.000000 1.255200 0.000000 0.000000 0.000000
21 20 23 24 3 0.000000 0.000000 1.255200 0.000000 0.000000 0.000000
21 20 23 25 3 0.000000 0.000000 1.255200 0.000000 0.000000 0.000000
22 20 17 18 3 0.000000 0.000000 1.255200 0.000000 0.000000 0.000000
22 20 17 19 3 0.000000 0.000000 1.255200 0.000000 0.000000 0.000000
22 20 23 24 3 0.000000 0.000000 1.255200 0.000000 0.000000 0.000000
22 20 23 25 3 0.000000 0.000000 1.255200 0.000000 0.000000 0.000000
24 23 20 21 3 0.000000 0.000000 1.255200 0.000000 0.000000 0.000000
24 23 20 22 3 0.000000 0.000000 1.255200 0.000000 0.000000 0.000000
24 23 26 27 3 0.000000 0.000000 1.255200 0.000000 0.000000 0.000000
24 23 26 28 3 0.000000 0.000000 1.255200 0.000000 0.000000 0.000000
25 23 20 21 3 0.000000 0.000000 1.255200 0.000000 0.000000 0.000000
25 23 20 22 3 0.000000 0.000000 1.255200 0.000000 0.000000 0.000000
25 23 26 27 3 0.000000 0.000000 1.255200 0.000000 0.000000 0.000000
25 23 26 28 3 0.000000 0.000000 1.255200 0.000000 0.000000 0.000000
27 26 23 24 3 0.000000 0.000000 1.255200 0.000000 0.000000 0.000000
27 26 23 25 3 0.000000 0.000000 1.255200 0.000000 0.000000 0.000000
27 26 29 30 3 0.000000 0.000000 1.255200 0.000000 0.000000 0.000000
27 26 29 31 3 0.000000 0.000000 1.255200 0.000000 0.000000 0.000000
28 26 23 24 3 0.000000 0.000000 1.255200 0.000000 0.000000 0.000000
28 26 23 25 3 0.000000 0.000000 1.255200 0.000000 0.000000 0.000000
28 26 29 30 3 0.000000 0.000000 1.255200 0.000000 0.000000 0.000000
28 26 29 31 3 0.000000 0.000000 1.255200 0.000000 0.000000 0.000000
30 29 26 27 3 0.000000 0.000000 1.255200 0.000000 0.000000 0.000000
30 29 26 28 3 0.000000 0.000000 1.255200 0.000000 0.000000 0.000000
30 29 32 33 3 0.000000 0.000000 1.255200 0.000000 0.000000 0.000000
30 29 32 34 3 0.000000 0.000000 1.255200 0.000000 0.000000 0.000000
31 29 26 27 3 0.000000 0.000000 1.255200 0.000000 0.000000 0.000000
31 29 26 28 3 0.000000 0.000000 1.255200 0.000000 0.000000 0.000000
31 29 32 33 3 0.000000 0.000000 1.255200 0.000000 0.000000 0.000000
31 29 32 34 3 0.000000 0.000000 1.255200 0.000000 0.000000 0.000000
33 32 29 30 3 0.000000 0.000000 1.255200 0.000000 0.000000 0.000000
33 32 29 31 3 0.000000 0.000000 1.255200 0.000000 0.000000 0.000000
33 32 35 36 3 0.000000 0.000000 1.255200 0.000000 0.000000 0.000000
33 32 35 37 3 0.000000 0.000000 1.255200 0.000000 0.000000 0.000000
34 32 29 30 3 0.000000 0.000000 1.255200 0.000000 0.000000 0.000000
34 32 29 31 3 0.000000 0.000000 1.255200 0.000000 0.000000 0.000000
34 32 35 36 3 0.000000 0.000000 1.255200 0.000000 0.000000 0.000000
34 32 35 37 3 0.000000 0.000000 1.255200 0.000000 0.000000 0.000000
36 35 32 33 3 0.000000 0.000000 1.255200 0.000000 0.000000 0.000000
36 35 32 34 3 0.000000 0.000000 1.255200 0.000000 0.000000 0.000000
36 35 38 39 3 0.000000 0.000000 1.255200 0.000000 0.000000 0.000000
36 35 38 40 3 0.000000 0.000000 1.255200 0.000000 0.000000 0.000000
37 35 32 33 3 0.000000 0.000000 1.255200 0.000000 0.000000 0.000000
37 35 32 34 3 0.000000 0.000000 1.255200 0.000000 0.000000 0.000000
37 35 38 39 3 0.000000 0.000000 1.255200 0.000000 0.000000 0.000000
37 35 38 40 3 0.000000 0.000000 1.255200 0.000000 0.000000 0.000000
39 38 35 36 3 0.000000 0.000000 1.255200 0.000000 0.000000 0.000000
39 38 35 37 3 0.000000 0.000000 1.255200 0.000000 0.000000 0.000000
39 38 41 42 3 0.000000 0.000000 1.255200 0.000000 0.000000 0.000000
39 38 41 43 3 0.000000 0.000000 1.255200 0.000000 0.000000 0.000000
40 38 35 36 3 0.000000 0.000000 1.255200 0.000000 0.000000 0.000000
40 38 35 37 3 0.000000 0.000000 1.255200 0.000000 0.000000 0.000000
40 38 41 42 3 0.000000 0.000000 1.255200 0.000000 0.000000 0.000000
40 38 41 43 3 0.000000 0.000000 1.255200 0.000000 0.000000 0.000000
42 41 38 39 3 0.000000 0.000000 1.255200 0.000000 0.000000 0.000000
42 41 38 40 3 0.000000 0.000000 1.255200 0.000000 0.000000 0.000000
43 41 38 39 3 0.000000 0.000000 1.255200 0.000000 0.000000 0.000000
43 41 38 40 3 0.000000 0.000000 1.255200 0.000000 0.000000 0.000000
46 45 70 71 3 0.000000 0.000000 1.255200 0.000000 0.000000 0.000000
46 45 70 72 3 0.000000 0.000000 1.255200 0.000000 0.000000 0.000000
47 45 70 71 3 0.000000 0.000000 1.255200 0.000000 0.000000 0.000000
47 45 70 72 3 0.000000 0.000000 1.255200 0.000000 0.000000 0.000000
49 48 86 87 3 0.000000 0.000000 1.255200 0.000000 0.000000 0.000000
49 48 86 88 3 0.000000 0.000000 1.255200 0.000000 0.000000 0.000000
50 48 86 87 3 0.000000 0.000000 1.255200 0.000000 0.000000 0.000000
50 48 86 88 3 0.000000 0.000000 1.255200 0.000000 0.000000 0.000000
52 51 54 55 3 0.000000 0.000000 1.255200 0.000000 0.000000 0.000000
52 51 54 56 3 0.000000 0.000000 1.255200 0.000000 0.000000 0.000000
53 51 54 55 3 0.000000 0.000000 1.255200 0.000000 0.000000 0.000000
53 51 54 56 3 0.000000 0.000000 1.255200 0.000000 0.000000 0.000000
55 54 51 52 3 0.000000 0.000000 1.255200 0.000000 0.000000 0.000000
55 54 51 53 3 0.000000 0.000000 1.255200 0.000000 0.000000 0.000000
55 54 57 58 3 0.000000 0.000000 1.255200 0.000000 0.000000 0.000000
55 54 57 59 3 0.000000 0.000000 1.255200 0.000000 0.000000 0.000000
56 54 51 52 3 0.000000 0.000000 1.255200 0.000000 0.000000 0.000000
56 54 51 53 3 0.000000 0.000000 1.255200 0.000000 0.000000 0.000000
56 54 57 58 3 0.000000 0.000000 1.255200 0.000000 0.000000 0.000000
56 54 57 59 3 0.000000 0.000000 1.255200 0.000000 0.000000 0.000000
58 57 54 55 3 0.000000 0.000000 1.255200 0.000000 0.000000 0.000000
58 57 54 56 3 0.000000 0.000000 1.255200 0.000000 0.000000 0.000000
58 57 60 61 3 0.000000 0.000000 1.255200 0.000000 0.000000 0.000000
58 57 60 62 3 0.000000 0.000000 1.255200 0.000000 0.000000 0.000000
59 57 54 55 3 0.000000 0.000000 1.255200 0.000000 0.000000 0.000000
59 57 54 56 3 0.000000 0.000000 1.255200 0.000000 0.000000 0.000000
59 57 60 61 3 0.000000 0.000000 1.255200 0.000000 0.000000 0.000000
59 57 60 62 3 0.000000 0.000000 1.255200 0.000000 0.000000 0.000000
61 60 57 58 3 0.000000 0.000000 1.255200 0.000000 0.000000 0.000000
61 60 57 59 3 0.000000 0.000000 1.255200 0.000000 0.000000 0.000000
61 60 63 64 3 0.000000 0.000000 1.255200 0.000000 0.000000 0.000000
61 60 63 65 3 0.000000 0.000000 1.255200 0.000000 0.000000 0.000000
62 60 57 58 3 0.000000 0.000000 1.255200 0.000000 0.000000 0.000000
62 60 57 59 3 0.000000 0.000000 1.255200 0.000000 0.000000 0.000000
62 60 63 64 3 0.000000 0.000000 1.255200 0.000000 0.000000 0.000000
62 60 63 65 3 0.000000 0.000000 1.255200 0.000000 0.000000 0.000000
64 63 60 61 3 0.000000 0.000000 1.255200 0.000000 0.000000 0.000000
64 63 60 62 3 0.000000 0.000000 1.255200 0.000000 0.000000 0.000000
64 63 66 67 3 0.000000 0.000000 1.255200 0.000000 0.000000 0.000000
64 63 66 68 3 0.000000 0.000000 1.255200 0.000000 0.000000 0.000000
64 63 66 69 3 0.000000 0.000000 1.255200 0.000000 0.000000 0.000000
65 63 60 61 3 0.000000 0.000000 1.255200 0.000000 0.000000 0.000000
65 63 60 62 3 0.000000 0.000000 1.255200 0.000000 0.000000 0.000000
65 63 66 67 3 0.000000 0.000000 1.255200 0.000000 0.000000 0.000000
65 63 66 68 3 0.000000 0.000000 1.255200 0.000000 0.000000 0.000000
65 63 66 69 3 0.000000 0.000000 1.255200 0.000000 0.000000 0.000000
67 66 63 64 3 0.000000 0.000000 1.255200 0.000000 0.000000 0.000000
67 66 63 65 3 0.000000 0.000000 1.255200 0.000000 0.000000 0.000000
68 66 63 64 3 0.000000 0.000000 1.255200 0.000000 0.000000 0.000000
68 66 63 65 3 0.000000 0.000000 1.255200 0.000000 0.000000 0.000000
69 66 63 64 3 0.000000 0.000000 1.255200 0.000000 0.000000 0.000000
69 66 63 65 3 0.000000 0.000000 1.255200 0.000000 0.000000 0.000000
71 70 45 46 3 0.000000 0.000000 1.255200 0.000000 0.000000 0.000000
71 70 45 47 3 0.000000 0.000000 1.255200 0.000000 0.000000 0.000000
71 70 73 74 3 0.000000 0.000000 1.255200 0.000000 0.000000 0.000000
71 70 73 75 3 0.000000 0.000000 1.255200 0.000000 0.000000 0.000000
72 70 45 46 3 0.000000 0.000000 1.255200 0.000000 0.000000 0.000000
72 70 45 47 3 0.000000 0.000000 1.255200 0.000000 0.000000 0.000000
72 70 73 74 3 0.000000 0.000000 1.255200 0.000000 0.000000 0.000000
72 70 73 75 3 0.000000 0.000000 1.255200 0.000000 0.000000 0.000000
74 73 70 71 3 0.000000 0.000000 1.255200 0.000000 0.000000 0.000000
74 73 70 72 3 0.000000 0.000000 1.255200 0.000000 0.000000 0.000000
74 73 76 77 3 0.000000 0.000000 1.255200 0.000000 0.000000 0.000000
74 73 76 78 3 0.000000 0.000000 1.255200 0.000000 0.000000 0.000000
75 73 70 71 3 0.000000 0.000000 1.255200 0.000000 0.000000 0.000000
75 73 70 72 3 0.000000 0.000000 1.255200 0.000000 0.000000 0.000000
75 73 76 77 3 0.000000 0.000000 1.255200 0.000000 0.000000 0.000000
75 73 76 78 3 0.000000 0.000000 1.255200 0.000000 0.000000 0.000000
77 76 73 74 3 0.000000 0.000000 1.255200 0.000000 0.000000 0.000000
77 76 73 75 3 0.000000 0.000000 1.255200 0.000000 0.000000 0.000000
77 76 79 80 3 0.000000 0.000000 1.255200 0.000000 0.000000 0.000000
77 76 79 81 3 0.000000 0.000000 1.255200 0.000000 0.000000 0.000000
78 76 73 74 3 0.000000 0.000000 1.255200 0.000000 0.000000 0.000000
78 76 73 75 3 0.000000 0.000000 1.255200 0.000000 0.000000 0.000000
78 76 79 80 3 0.000000 0.000000 1.255200 0.000000 0.000000 0.000000
78 76 79 81 3 0.000000 0.000000 1.255200 0.000000 0.000000 0.000000
80 79 76 77 3 0.000000 0.000000 1.255200 0.000000 0.000000 0.000000
80 79 76 78 3 0.000000 0.000000 1.255200 0.000000 0.000000 0.000000
80 79 82 83 3 0.000000 0.000000 1.255200 0.000000 0.000000 0.000000
80 79 82 84 3 0.000000 0.000000 1.255200 0.000000 0.000000 0.000000
80 79 82 85 3 0.000000 0.000000 1.255200 0.000000 0.000000 0.000000
81 79 76 77 3 0.000000 0.000000 1.255200 0.000000 0.000000 0.000000
81 79 76 78 3 0.000000 0.000000 1.255200 0.000000 0.000000 0.000000
81 79 82 83 3 0.000000 0.000000 1.255200 0.000000 0.000000 0.000000
81 79 82 84 3 0.000000 0.000000 1.255200 0.000000 0.000000 0.000000
81 79 82 85 3 0.000000 0.000000 1.255200 0.000000 0.000000 0.000000
83 82 79 80 3 0.000000 0.000000 1.255200 0.000000 0.000000 0.000000
83 82 79 81 3 0.000000 0.000000 1.255200 0.000000 0.000000 0.000000
84 82 79 80 3 0.000000 0.000000 1.255200 0.000000 0.000000 0.000000
84 82 79 81 3 0.000000 0.000000 1.255200 0.000000 0.000000 0.000000
85 82 79 80 3 0.000000 0.000000 1.255200 0.000000 0.000000 0.000000
85 82 79 81 3 0.000000 0.000000 1.255200 0.000000 0.000000 0.000000
87 86 48 49 3 0.000000 0.000000 1.255200 0.000000 0.000000 0.000000
87 86 48 50 3 0.000000 0.000000 1.255200 0.000000 0.000000 0.000000
87 86 89 90 3 0.000000 0.000000 1.255200 0.000000 0.000000 0.000000
87 86 89 91 3 0.000000 0.000000 1.255200 0.000000 0.000000 0.000000
88 86 48 49 3 0.000000 0.000000 1.255200 0.000000 0.000000 0.000000
88 86 48 50 3 0.000000 0.000000 1.255200 0.000000 0.000000 0.000000
88 86 89 90 3 0.000000 0.000000 1.255200 0.000000 0.000000 0.000000
88 86 89 91 3 0.000000 0.000000 1.255200 0.000000 0.000000 0.000000
90 89 86 87 3 0.000000 0.000000 1.255200 0.000000 0.000000 0.000000
90 89 86 88 3 0.000000 0.000000 1.255200 0.000000 0.000000 0.000000
90 89 92 93 3 0.000000 0.000000 1.255200 0.000000 0.000000 0.000000
90 89 92 94 3 0.000000 0.000000 1.255200 0.000000 0.000000 0.000000
91 89 86 87 3 0.000000 0.000000 1.255200 0.000000 0.000000 0.000000
91 89 86 88 3 0.000000 0.000000 1.255200 0.000000 0.000000 0.000000
91 89 92 93 3 0.000000 0.000000 1.255200 0.000000 0.000000 0.000000
91 89 92 94 3 0.000000 0.000000 1.255200 0.000000 0.000000 0.000000
93 92 89 90 3 0.000000 0.000000 1.255200 0.000000 0.000000 0.000000
93 92 89 91 3 0.000000 0.000000 1.255200 0.000000 0.000000 0.000000
93 92 95 96 3 0.000000 0.000000 1.255200 0.000000 0.000000 0.000000
93 92 95 97 3 0.000000 0.000000 1.255200 0.000000 0.000000 0.000000
94 92 89 90 3 0.000000 0.000000 1.255200 0.000000 0.000000 0.000000
94 92 89 91 3 0.000000 0.000000 1.255200 0.000000 0.000000 0.000000
94 92 95 96 3 0.000000 0.000000 1.255200 0.000000 0.000000 0.000000
94 92 95 97 3 0.000000 0.000000 1.255200 0.000000 0.000000 0.000000
96 95 92 93 3 0.000000 0.000000 1.255200 0.000000 0.000000 0.000000
96 95 92 94 3 0.000000 0.000000 1.255200 0.000000 0.000000 0.000000
96 95 98 99 3 0.000000 0.000000 1.255200 0.000000 0.000000 0.000000
96 95 98 100 3 0.000000 0.000000 1.255200 0.000000 0.000000 0.000000
96 95 98 101 3 0.000000 0.000000 1.255200 0.000000 0.000000 0.000000
97 95 92 93 3 0.000000 0.000000 1.255200 0.000000 0.000000 0.000000
97 95 92 94 3 0.000000 0.000000 1.255200 0.000000 0.000000 0.000000
97 95 98 99 3 0.000000 0.000000 1.255200 0.000000 0.000000 0.000000
97 95 98 100 3 0.000000 0.000000 1.255200 0.000000 0.000000 0.000000
97 95 98 101 3 0.000000 0.000000 1.255200 0.000000 0.000000 0.000000
99 98 95 96 3 0.000000 0.000000 1.255200 0.000000 0.000000 0.000000
99 98 95 97 3 0.000000 0.000000 1.255200 0.000000 0.000000 0.000000
100 98 95 96 3 0.000000 0.000000 1.255200 0.000000 0.000000 0.000000
100 98 95 97 3 0.000000 0.000000 1.255200 0.000000 0.000000 0.000000
101 98 95 96 3 0.000000 0.000000 1.255200 0.000000 0.000000 0.000000
101 98 95 97 3 0.000000 0.000000 1.255200 0.000000 0.000000 0.000000
35 38 41 44 3 -3.248000 0.988000 -0.715000 0.000000 0.000000 0.000000
44 41 38 35 3 -3.248000 0.988000 -0.715000 0.000000 0.000000 0.000000
44 45 70 73 3 -3.248000 0.988000 -0.715000 0.000000 0.000000 0.000000
44 48 86 89 3 -3.248000 0.988000 -0.715000 0.000000 0.000000 0.000000
44 51 54 57 3 -3.248000 0.988000 -0.715000 0.000000 0.000000 0.000000
57 54 51 44 3 -3.248000 0.988000 -0.715000 0.000000 0.000000 0.000000
73 70 45 44 3 -3.248000 0.988000 -0.715000 0.000000 0.000000 0.000000
89 86 48 44 3 -3.248000 0.988000 -0.715000 0.000000 0.000000 0.000000
39 38 41 44 3 0.000000 0.000000 0.465000 0.000000 0.000000 0.000000
40 38 41 44 3 0.000000 0.000000 0.465000 0.000000 0.000000 0.000000
44 41 38 39 3 0.000000 0.000000 0.465000 0.000000 0.000000 0.000000
44 41 38 40 3 0.000000 0.000000 0.465000 0.000000 0.000000 0.000000
44 45 70 71 3 0.000000 0.000000 0.465000 0.000000 0.000000 0.000000
44 45 70 72 3 0.000000 0.000000 0.465000 0.000000 0.000000 0.000000
44 48 86 87 3 0.000000 0.000000 0.465000 0.000000 0.000000 0.000000
44 48 86 88 3 0.000000 0.000000 0.465000 0.000000 0.000000 0.000000
44 51 54 55 3 0.000000 0.000000 0.465000 0.000000 0.000000 0.000000
44 51 54 56 3 0.000000 0.000000 0.465000 0.000000 0.000000 0.000000
55 54 51 44 3 0.000000 0.000000 0.465000 0.000000 0.000000 0.000000
56 54 51 44 3 0.000000 0.000000 0.465000 0.000000 0.000000 0.000000
71 70 45 44 3 0.000000 0.000000 0.465000 0.000000 0.000000 0.000000
72 70 45 44 3 0.000000 0.000000 0.465000 0.000000 0.000000 0.000000
87 86 48 44 3 0.000000 0.000000 0.465000 0.000000 0.000000 0.000000
88 86 48 44 3 0.000000 0.000000 0.465000 0.000000 0.000000 0.000000
41 44 45 46 3 0.000000 0.000000 0.927000 0.000000 0.000000 0.000000
41 44 45 47 3 0.000000 0.000000 0.927000 0.000000 0.000000 0.000000
41 44 48 49 3 0.000000 0.000000 0.927000 0.000000 0.000000 0.000000
41 44 48 50 3 0.000000 0.000000 0.927000 0.000000 0.000000 0.000000
41 44 51 52 3 0.000000 0.000000 0.927000 0.000000 0.000000 0.000000
41 44 51 53 3 0.000000 0.000000 0.927000 0.000000 0.000000 0.000000
42 41 44 45 3 0.000000 0.000000 0.927000 0.000000 0.000000 0.000000
42 41 44 48 3 0.000000 0.000000 0.927000 0.000000 0.000000 0.000000
42 41 44 51 3 0.000000 0.000000 0.927000 0.000000 0.000000 0.000000
43 41 44 45 3 0.000000 0.000000 0.927000 0.000000 0.000000 0.000000
43 41 44 48 3 0.000000 0.000000 0.927000 0.000000 0.000000 0.000000
43 41 44 51 3 0.000000 0.000000 0.927000 0.000000 0.000000 0.000000
45 44 41 42 3 0.000000 0.000000 0.927000 0.000000 0.000000 0.000000
45 44 41 43 3 0.000000 0.000000 0.927000 0.000000 0.000000 0.000000
45 44 48 49 3 0.000000 0.000000 0.927000 0.000000 0.000000 0.000000
45 44 48 50 3 0.000000 0.000000 0.927000 0.000000 0.000000 0.000000
45 44 51 52 3 0.000000 0.000000 0.927000 0.000000 0.000000 0.000000
45 44 51 53 3 0.000000 0.000000 0.927000 0.000000 0.000000 0.000000
46 45 44 41 3 0.000000 0.000000 0.927000 0.000000 0.000000 0.000000
46 45 44 48 3 0.000000 0.000000 0.927000 0.000000 0.000000 0.000000
46 45 44 51 3 0.000000 0.000000 0.927000 0.000000 0.000000 0.000000
47 45 44 41 3 0.000000 0.000000 0.927000 0.000000 0.000000 0.000000
47 45 44 48 3 0.000000 0.000000 0.927000 0.000000 0.000000 0.000000
47 45 44 51 3 0.000000 0.000000 0.927000 0.000000 0.000000 0.000000
48 44 41 42 3 0.000000 0.000000 0.927000 0.000000 0.000000 0.000000
48 44 41 43 3 0.000000 0.000000 0.927000 0.000000 0.000000 0.000000
48 44 45 46 3 0.000000 0.000000 0.927000 0.000000 0.000000 0.000000
48 44 45 47 3 0.000000 0.000000 0.927000 0.000000 0.000000 0.000000
48 44 51 52 3 0.000000 0.000000 0.927000 0.000000 0.000000 0.000000
48 44 51 53 3 0.000000 0.000000 0.927000 0.000000 0.000000 0.000000
49 48 44 41 3 0.000000 0.000000 0.927000 0.000000 0.000000 0.000000
49 48 44 45 3 0.000000 0.000000 0.927000 0.000000 0.000000 0.000000
49 48 44 51 3 0.000000 0.000000 0.927000 0.000000 0.000000 0.000000
50 48 44 41 3 0.000000 0.000000 0.927000 0.000000 0.000000 0.000000
50 48 44 45 3 0.000000 0.000000 0.927000 0.000000 0.000000 0.000000
50 48 44 51 3 0.000000 0.000000 0.927000 0.000000 0.000000 0.000000
51 44 41 42 3 0.000000 0.000000 0.927000 0.000000 0.000000 0.000000
51 44 41 43 3 0.000000 0.000000 0.927000 0.000000 0.000000 0.000000
51 44 45 46 3 0.000000 0.000000 0.927000 0.000000 0.000000 0.000000
51 44 45 47 3 0.000000 0.000000 0.927000 0.000000 0.000000 0.000000
51 44 48 49 3 0.000000 0.000000 0.927000 0.000000 0.000000 0.000000
51 44 48 50 3 0.000000 0.000000 0.927000 0.000000 0.000000 0.000000
52 51 44 41 3 0.000000 0.000000 0.927000 0.000000 0.000000 0.000000
52 51 44 45 3 0.000000 0.000000 0.927000 0.000000 0.000000 0.000000
52 51 44 48 3 0.000000 0.000000 0.927000 0.000000 0.000000 0.000000
53 51 44 41 3 0.000000 0.000000 0.927000 0.000000 0.000000 0.000000
53 51 44 45 3 0.000000 0.000000 0.927000 0.000000 0.000000 0.000000
53 51 44 48 3 0.000000 0.000000 0.927000 0.000000 0.000000 0.000000
38 41 44 45 3 0.000000 0.000000 1.133000 0.000000 0.000000 0.000000
38 41 44 48 3 0.000000 0.000000 1.133000 0.000000 0.000000 0.000000
38 41 44 51 3 0.000000 0.000000 1.133000 0.000000 0.000000 0.000000
41 44 45 70 3 0.000000 0.000000 1.133000 0.000000 0.000000 0.000000
41 44 48 86 3 0.000000 0.000000 1.133000 0.000000 0.000000 0.000000
41 44 51 54 3 0.000000 0.000000 1.133000 0.000000 0.000000 0.000000
45 44 41 38 3 0.000000 0.000000 1.133000 0.000000 0.000000 0.000000
45 44 48 86 3 0.000000 0.000000 1.133000 0.000000 0.000000 0.000000
45 44 51 54 3 0.000000 0.000000 1.133000 0.000000 0.000000 0.000000
48 44 41 38 3 0.000000 0.000000 1.133000 0.000000 0.000000 0.000000
48 44 45 70 3 0.000000 0.000000 1.133000 0.000000 0.000000 0.000000
48 44 51 54 3 0.000000 0.000000 1.133000 0.000000 0.000000 0.000000
51 44 41 38 3 0.000000 0.000000 1.133000 0.000000 0.000000 0.000000
51 44 45 70 3 0.000000 0.000000 1.133000 0.000000 0.000000 0.000000
51 44 48 86 3 0.000000 0.000000 1.133000 0.000000 0.000000 0.000000
54 51 44 41 3 0.000000 0.000000 1.133000 0.000000 0.000000 0.000000
54 51 44 45 3 0.000000 0.000000 1.133000 0.000000 0.000000 0.000000
54 51 44 48 3 0.000000 0.000000 1.133000 0.000000 0.000000 0.000000
70 45 44 41 3 0.000000 0.000000 1.133000 0.000000 0.000000 0.000000
70 45 44 48 3 0.000000 0.000000 1.133000 0.000000 0.000000 0.000000
70 45 44 51 3 0.000000 0.000000 1.133000 0.000000 0.000000 0.000000
86 48 44 41 3 0.000000 0.000000 1.133000 0.000000 0.000000 0.000000
86 48 44 45 3 0.000000 0.000000 1.133000 0.000000 0.000000 0.000000
86 48 44 51 3 0.000000 0.000000 1.133000 0.000000 0.000000 0.000000
