[ atomtypes ]
; name  at.nr     mass   charge  ptype  sigma        epsilon
CXP         6  12.0110   0.0200      A  3.55000e-01  2.92880e-01
CXM         6  12.0110  -0.0700      A  3.55000e-01  2.92880e-01
CXO         6  12.0110   0.0000      A  3.55000e-01  2.92880e-01
NAP         7  14.0070   0.1500      A  3.25000e-01  7.11280e-01
HAP         1   1.0080   0.1500      A  2.42000e-01  1.25520e-01
C1          6  12.0110  -0.1700      A  3.50000e-01  2.76140e-01
CE          6  12.0110  -0.0500      A  3.50000e-01  2.76140e-01
H1          1   1.0080   0.1300      A  2.50000e-01  1.25520e-01
HC          1   1.0080   0.0600      A  2.50000e-01  1.25520e-01

