[ moleculetype ]
; name       nrexcl
PY8               3

[ atoms ]
;  nr   type  resnr  residu   atom   cgnr    charge
    1   CXP       1  PY8      CXP       1    0.0200
    2   CXM       1  PY8      CXM       1   -0.0700
    3   CXO       1  PY8      CXO       1    0.0000
    4   CXM       1  PY8      CXM       1   -0.0700
    5   CXO       1  PY8      CXO       1    0.0000
    6   NAP       1  PY8      NAP       1    0.1500
    7   HAP       1  PY8      HAP       1    0.1500
    8   HAP       1  PY8      HAP       1    0.1500
    9   HAP       1  PY8      HAP       1    0.1500
   10   HAP       1  PY8      HAP       1    0.1500
   11   HAP       1  PY8      HAP       1    0.1500
   12   C1        1  PY8      C1        1   -0.1700
   13   C2        1  PY8      C2        1    0.0100
   14   H1        1  PY8      H1        1    0.1300
   15   H1        1  PY8      H1        1    0.1300
   16   CS        1  PY8      CS        1   -0.1200
   17   HC        1  PY8      HC        1    0.0600
   18   HC        1  PY8      HC        1    0.0600
   19   CS        1  PY8      CS        1   -0.1200
   20   HC        1  PY8      HC        1    0.0600
   21   HC        1  PY8      HC        1    0.0600
   22   CS        1  PY8      CS        1   -0.1200
   23   HC        1  PY8      HC        1    0.0600
   24   HC        1  PY8      HC        1    0.0600
   25   CS        1  PY8      CS        1   -0.1200
   26   HC        1  PY8      HC        1    0.0600
   27   HC        1  PY8      HC        1    0.0600
   28   CS        1  PY8      CS        1   -0.1200
   29   HC        1  PY8      HC        1    0.0600
   30   HC        1  PY8      HC        1    0.0600
   31   CT        1  PY8      CT        1   -0.1800
   32   HC        1  PY8      HC        1    0.0600
   33   HC        1  PY8      HC        1    0.0600
   34   HC        1  PY8      HC        1    0.0600
   35   HC        1  PY8      HC        1    0.0600
   36   HC        1  PY8      HC        1    0.0600

[ bonds ]
;  ai    aj   func    b0        kb
    1     2      1    0.14000   392460.0
    1     4      1    0.14000   392460.0
    2     3      1    0.14000   392460.0
    3     6      1    0.13400   404200.0
    4     5      1    0.14000   392460.0
    5     6      1    0.13400   404200.0
    6    12      1    0.14660   282000.0
   12    13      1    0.15290   224200.0
   13    16      1    0.15290   224200.0
   16    19      1    0.15290   224200.0
   19    22      1    0.15290   224200.0
   22    25      1    0.15290   224200.0
   25    28      1    0.15290   224200.0
   28    31      1    0.15290   224200.0

[ constraints ]
;  ai    aj   func    b0
    1     9      1    0.10800
    2    10      1    0.10800
    3    11      1    0.10800
    4     7      1    0.10800
    5     8      1    0.10800
   12    14      1    0.10900
   12    15      1    0.10900
   13    17      1    0.10900
   13    18      1    0.10900
   16    20      1    0.10900
   16    21      1    0.10900
   19    23      1    0.10900
   19    24      1    0.10900
   22    26      1    0.10900
   22    27      1    0.10900
   25    29      1    0.10900
   25    30      1    0.10900
   28    32      1    0.10900
   28    33      1    0.10900
   31    34      1    0.10900
   31    35      1    0.10900
   31    36      1    0.10900

[ angles ]
;  ai    aj    ak   func    th0        cth
    2     1     4      1    120.000    527.200
    2     1     9      1    120.000    292.900
    4     1     9      1    120.000    292.900
    1     2     3      1    120.000    527.200
    1     2    10      1    120.000    292.900
    3     2    10      1    120.000    292.900
    2     3     6      1    120.000    585.800
    2     3    11      1    120.000    292.900
    6     3    11      1    120.000    292.900
    1     4     5      1    120.000    527.200
    1     4     7      1    120.000    292.900
    5     4     7      1    120.000    292.900
    4     5     6      1    120.000    585.800
    4     5     8      1    120.000    292.900
    6     5     8      1    120.000    292.900
    3     6     5      1    120.400    585.800
    3     6    12      1    119.800    585.800
    5     6    12      1    119.800    585.800
    6    12    13      1    112.700    488.300
    6    12    14      1    110.700    313.800
    6    12    15      1    110.700    313.800
   13    12    14      1    110.700    313.800
   13    12    15      1    110.700    313.800
   14    12    15      1    107.800    276.100
   12    13    16      1    112.700    488.300
   12    13    17      1    110.700    313.800
   12    13    18      1    110.700    313.800
   16    13    17      1    110.700    313.800
   16    13    18      1    110.700    313.800
   17    13    18      1    107.800    276.100
   13    16    19      1    112.700    488.300
   13    16    20      1    110.700    313.800
   13    16    21      1    110.700    313.800
   19    16    20      1    110.700    313.800
   19    16    21      1    110.700    313.800
   20    16    21      1    107.800    276.100
   16    19    22      1    112.700    488.300
   16    19    23      1    110.700    313.800
   16    19    24      1    110.700    313.800
   22    19    23      1    110.700    313.800
   22    19    24      1    110.700    313.800
   23    19    24      1    107.800    276.100
   19    22    25      1    112.700    488.300
   19    22    26      1    110.700    313.800
   19    22    27      1    110.700    313.800
   25    22    26      1    110.700    313.800
   25    22    27      1    110.700    313.800
   26    22    27      1    107.800    276.100
   22    25    28      1    112.700    488.300
   22    25    29      1    110.700    313.800
   22    25    30      1    110.700    313.800
   28    25    29      1    110.700    313.800
   28    25    30      1    110.700    313.800
   29    25    30      1    107.800    276.100
   25    28    31      1    112.700    488.300
   25    28    32      1    110.700    313.800
   25    28    33      1    110.700    313.800
   31    28    32      1    110.700    313.800
   31    28    33      1    110.700    313.800
   32    28    33      1    107.800    276.100
   28    31    35      1    110.700    313.800
   28    31    36      1    110.700    313.800
   28    31    34      1    110.700    313.800
   35    31    36      1    107.800    276.100
   34    31    36      1    107.800    276.100
   35    31    36      1    107.800    276.100

[ dihedrals ]
;  ai    aj    ak    al   func    coefficients
    4     1     2     3      5    0.00000  30.33400   0.00000   0.00000
    4     1     2    10      5    0.00000  30.33400   0.00000   0.00000
    9     1     2     3      5    0.00000  30.33400   0.00000   0.00000
    9     1     2    10      5    0.00000  30.33400   0.00000   0.00000
    2     1     4     5      5    0.00000  30.33400   0.00000   0.00000
    2     1     4     7      5    0.00000  30.33400   0.00000   0.00000
    9     1     4     5      5    0.00000  30.33400   0.00000   0.00000
    9     1     4     7      5    0.00000  30.33400   0.00000   0.00000
    1     2     3     6      5    0.00000  30.33400   0.00000   0.00000
    1     2     3    11      5    0.00000  30.33400   0.00000   0.00000
   10     2     3     6      5    0.00000  30.33400   0.00000   0.00000
   10     2     3    11      5    0.00000  30.33400   0.00000   0.00000
    2     3     6     5      5    0.00000  12.55200   0.00000   0.00000
    2     3     6    12      5    0.00000  12.55200   0.00000   0.00000
   11     3     6     5      5    0.00000  12.55200   0.00000   0.00000
   11     3     6    12      5    0.00000  12.55200   0.00000   0.00000
    1     4     5     6      5    0.00000  30.33400   0.00000   0.00000
    1     4     5     8      5    0.00000  30.33400   0.00000   0.00000
    7     4     5     6      5    0.00000  30.33400   0.00000   0.00000
    7     4     5     8      5    0.00000  30.33400   0.00000   0.00000
    4     5     6     3      5    0.00000  12.55200   0.00000   0.00000
    4     5     6    12      5    0.00000  12.55200   0.00000   0.00000
    8     5     6     3      5    0.00000  12.55200   0.00000   0.00000
    8     5     6    12      5    0.00000  12.55200   0.00000   0.00000
    3     6    12    13      5    0.00000   1.09200   0.00000   0.79300
    3     6    12    14      5    0.00000   0.00000   0.00000   0.00000
    3     6    12    15      5    0.00000   0.00000   0.00000   0.00000
    5     6    12    13      5    0.00000   1.09200   0.00000   0.79300
    5     6    12    14      5    0.00000   0.00000   0.00000   0.00000
    5     6    12    15      5    0.00000   0.00000   0.00000   0.00000
    6    12    13    16      5   -7.47970   3.16420  -1.20260   0.00000
    6    12    13    17      5    0.00000   0.00000   0.36700   0.00000
    6    12    13    18      5    0.00000   0.00000   0.36700   0.00000
   14    12    13    16      5    0.00000   0.00000   1.25520   0.00000
   14    12    13    17      5    0.00000   0.00000   1.25520   0.00000
   14    12    13    18      5    0.00000   0.00000   1.25520   0.00000
   15    12    13    16      5    0.00000   0.00000   1.25520   0.00000
   15    12    13    17      5    0.00000   0.00000   1.25520   0.00000
   15    12    13    18      5    0.00000   0.00000   1.25520   0.00000
   12    13    16    19      5    5.43920  -0.20920   0.83680   0.00000
   12    13    16    20      5    0.00000   0.00000   1.25520   0.00000
   12    13    16    21      5    0.00000   0.00000   1.25520   0.00000
   17    13    16    19      5    0.00000   0.00000   1.25520   0.00000
   17    13    16    20      5    0.00000   0.00000   1.25520   0.00000
   17    13    16    21      5    0.00000   0.00000   1.25520   0.00000
   18    13    16    19      5    0.00000   0.00000   1.25520   0.00000
   18    13    16    20      5    0.00000   0.00000   1.25520   0.00000
   18    13    16    21      5    0.00000   0.00000   1.25520   0.00000
   13    16    19    22      5    5.43920  -0.20920   0.83680   0.00000
   13    16    19    23      5    0.00000   0.00000   1.25520   0.00000
   13    16    19    24      5    0.00000   0.00000   1.25520   0.00000
   20    16    19    22      5    0.00000   0.00000   1.25520   0.00000
   20    16    19    23      5    0.00000   0.00000   1.25520   0.00000
   20    16    19    24      5    0.00000   0.00000   1.25520   0.00000
   21    16    19    22      5    0.00000   0.00000   1.25520   0.00000
   21    16    19    23      5    0.00000   0.00000   1.25520   0.00000
   21    16    19    24      5    0.00000   0.00000   1.25520   0.00000
   16    19    22    25      5    5.43920  -0.20920   0.83680   0.00000
   16    19    22    26      5    0.00000   0.00000   1.25520   0.00000
   16    19    22    27      5    0.00000   0.00000   1.25520   0.00000
   23    19    22    25      5    0.00000   0.00000   1.25520   0.00000
   23    19    22    26      5    0.00000   0.00000   1.25520   0.00000
   23    19    22    27      5    0.00000   0.00000   1.25520   0.00000
   24    19    22    25      5    0.00000   0.00000   1.25520   0.00000
   24    19    22    26      5    0.00000   0.00000   1.25520   0.00000
   24    19    22    27      5    0.00000   0.00000   1.25520   0.00000
   19    22    25    28      5    5.43920  -0.20920   0.83680   0.00000
   19    22    25    29      5    0.00000   0.00000   1.25520   0.00000
   19    22    25    30      5    0.00000   0.00000   1.25520   0.00000
   26    22    25    28      5    0.00000   0.00000   1.25520   0.00000
   26    22    25    29      5    0.00000   0.00000   1.25520   0.00000
   26    22    25    30      5    0.00000   0.00000   1.25520   0.00000
   27    22    25    28      5    0.00000   0.00000   1.25520   0.00000
   27    22    25    29      5    0.00000   0.00000   1.25520   0.00000
   27    22    25    30      5    0.00000   0.00000   1.25520   0.00000
   22    25    28    31      5    5.43920  -0.20920   0.83680   0.00000
   22    25    28    32      5    0.00000   0.00000   1.25520   0.00000
   22    25    28    33      5    0.00000   0.00000   1.25520   0.00000
   29    25    28    31      5    0.00000   0.00000   1.25520   0.00000
   29    25    28    32      5    0.00000   0.00000   1.25520   0.00000
   29    25    28    33      5    0.00000   0.00000   1.25520   0.00000
   30    25    28    31      5    0.00000   0.00000   1.25520   0.00000
   30    25    28    32      5    0.00000   0.00000   1.25520   0.00000
   30    25    28    33      5    0.00000   0.00000   1.25520   0.00000
   25    28    31    35      5    0.00000   0.00000   1.25520   0.00000
   25    28    31    36      5    0.00000   0.00000   1.25520   0.00000
   32    28    31    35      5    0.00000   0.00000   1.25520   0.00000
   32    28    31    36      5    0.00000   0.00000   1.25520   0.00000
   33    28    31    35      5    0.00000   0.00000   1.25520   0.00000
   33    28    31    36      5    0.00000   0.00000   1.25520   0.00000
   25    28    31    34      5    0.00000   0.00000   1.25520   0.00000
   32    28    31    34      5    0.00000   0.00000   1.25520   0.00000
   33    28    31    34      5    0.00000   0.00000   1.25520   0.00000
    2     4     1     9      5    0.00000   9.20480   0.00000   0.00000
    1     3     2    10      5    0.00000   9.20480   0.00000   0.00000
    2     6     3    11      5    0.00000   9.20480   0.00000   0.00000
    1     5     4     7      5    0.00000   9.20480   0.00000   0.00000
    4     6     5     8      5    0.00000   9.20480   0.00000   0.00000
    3     5     6    12      5    0.00000   9.20480   0.00000   0.00000

[ pairs ]
;   ai   aj   func
    4     3      1
    4    10      1
    9     3      1
    9    10      1
    2     5      1
    2     7      1
    9     5      1
    9     7      1
    1     6      1
    1    11      1
   10     6      1
   10    11      1
    2    12      1
   11     5      1
   11    12      1
    1     8      1
    7     6      1
    7     8      1
    4    12      1
    8     3      1
    8    12      1
    3    13      1
    3    14      1
    3    15      1
    5    13      1
    5    14      1
    5    15      1
    6    16      1
    6    17      1
    6    18      1
   14    16      1
   14    17      1
   14    18      1
   15    16      1
   15    17      1
   15    18      1
   12    19      1
   12    20      1
   12    21      1
   17    19      1
   17    20      1
   17    21      1
   18    19      1
   18    20      1
   18    21      1
   13    22      1
   13    23      1
   13    24      1
   20    22      1
   20    23      1
   20    24      1
   21    22      1
   21    23      1
   21    24      1
   16    25      1
   16    26      1
   16    27      1
   23    25      1
   23    26      1
   23    27      1
   24    25      1
   24    26      1
   24    27      1
   19    28      1
   19    29      1
   19    30      1
   26    28      1
   26    29      1
   26    30      1
   27    28      1
   27    29      1
   27    30      1
   22    31      1
   22    32      1
   22    33      1
   29    31      1
   29    32      1
   29    33      1
   30    31      1
   30    32      1
   30    33      1
   25    35      1
   25    36      1
   32    35      1
   32    36      1
   33    35      1
   33    36      1
   25    34      1
   32    34      1
   33    34      1

