[ moleculetype ]
; name       nrexcl
Pyr               3

[ atoms ]
;  nr   type  resnr  residu   atom   cgnr    charge
    1   C1        1  Pyr      C1        1   -0.1700
    2   H1        1  Pyr      H1        1    0.1300
    3   H1        1  Pyr      H1        1    0.1300
    4   C2        1  Pyr      C2        1    0.0100
    5   HC        1  Pyr      HC        1    0.0600
    6   HC        1  Pyr      HC        1    0.0600
    7   C2        1  Pyr      C2        1    0.0100
    8   HC        1  Pyr      HC        1    0.0600
    9   HC        1  Pyr      HC        1    0.0600
   10   C1        1  Pyr      C1        1   -0.1700
   11   H1        1  Pyr      H1        1    0.1300
   12   H1        1  Pyr      H1        1    0.1300
   13   N4        1  Pyr      N4        1    0.1200
   14   C1        1  Pyr      C1        1   -0.1700
   15   H1        1  Pyr      H1        1    0.1300
   16   H1        1  Pyr      H1        1    0.1300
   17   H1        1  Pyr      H1        1    0.1300
   18   C1        1  Pyr      C1        1   -0.1700
   19   H1        1  Pyr      H1        1    0.1300
   20   H1        1  Pyr      H1        1    0.1300
   21   C2        1  Pyr      C2        1    0.0100
   22   HC        1  Pyr      HC        1    0.0600
   23   HC        1  Pyr      HC        1    0.0600
   24   CS        1  Pyr      CS        1   -0.1200
   25   HC        1  Pyr      HC        1    0.0600
   26   HC        1  Pyr      HC        1    0.0600
   27   CT        1  Pyr      CT        1   -0.1800
   28   HC        1  Pyr      HC        1    0.0600
   29   HC        1  Pyr      HC        1    0.0600
   30   HC        1  Pyr      HC        1    0.0600

[ bonds ]
;  ai    aj   func    b0        kb
    1     4      1    0.15290   224200.0
    1    13      1    0.14480   319660.0
    4     7      1    0.15290   224200.0
    7    10      1    0.15290   224200.0
   10    13      1    0.14480   319660.0
   13    14      1    0.14480   319660.0
   13    18      1    0.14480   319660.0
   18    21      1    0.15290   224200.0
   21    24      1    0.15290   224200.0
   24    27      1    0.15290   224200.0

[ constraints ]
;  ai    aj   func    b0
    1     2      1    0.10900
    1     3      1    0.10900
    4     5      1    0.10900
    4     6      1    0.10900
    7     8      1    0.10900
    7     9      1    0.10900
   10    11      1    0.10900
   10    12      1    0.10900
   14    15      1    0.10900
   14    16      1    0.10900
   14    17      1    0.10900
   18    19      1    0.10900
   18    20      1    0.10900
   21    22      1    0.10900
   21    23      1    0.10900
   24    25      1    0.10900
   24    26      1    0.10900
   27    28      1    0.10900
   27    29      1    0.10900
   27    30      1    0.10900

[ angles ]
;  ai    aj    ak   func    th0        cth
    2     1     3      1    107.800    276.100
    2     1     4      1    110.700    313.800
    2     1    13      1    109.500    292.900
    3     1     4      1    110.700    313.800
    3     1    13      1    109.500    292.900
    4     1    13      1    109.500    470.300
    1     4     5      1    110.700    313.800
    1     4     6      1    110.700    313.800
    1     4     7      1    112.700    488.300
    5     4     6      1    107.800    276.100
    5     4     7      1    110.700    313.800
    6     4     7      1    110.700    313.800
    4     7     8      1    110.700    313.800
    4     7     9      1    110.700    313.800
    4     7    10      1    112.700    488.300
    8     7     9      1    107.800    276.100
    8     7    10      1    110.700    313.800
    9     7    10      1    110.700    313.800
    7    10    11      1    110.700    313.800
    7    10    12      1    110.700    313.800
    7    10    13      1    109.500    470.300
   11    10    12      1    107.800    276.100
   11    10    13      1    109.500    292.900
   12    10    13      1    109.500    292.900
    1    13    10      1    107.200    433.500
    1    13    14      1    107.200    433.500
    1    13    18      1    107.200    433.500
   10    13    14      1    107.200    433.500
   10    13    18      1    107.200    433.500
   14    13    18      1    107.200    433.500
   13    14    15      1    109.500    292.900
   13    14    16      1    109.500    292.900
   13    14    17      1    109.500    292.900
   15    14    16      1    107.800    276.100
   15    14    17      1    107.800    276.100
   16    14    17      1    107.800    276.100
   13    18    19      1    109.500    292.900
   13    18    20      1    109.500    292.900
   13    18    21      1    109.500    470.300
   19    18    20      1    107.800    276.100
   19    18    21      1    110.700    313.800
   20    18    21      1    110.700    313.800
   18    21    22      1    110.700    313.800
   18    21    23      1    110.700    313.800
   18    21    24      1    112.700    488.300
   22    21    23      1    107.800    276.100
   22    21    24      1    110.700    313.800
   23    21    24      1    110.700    313.800
   21    24    25      1    110.700    313.800
   21    24    26      1    110.700    313.800
   21    24    27      1    112.700    488.300
   25    24    26      1    107.800    276.100
   25    24    27      1    110.700    313.800
   26    24    27      1    110.700    313.800
   24    27    28      1    110.700    313.800
   24    27    29      1    110.700    313.800
   28    27    29      1    107.800    276.100
   24    27    30      1    110.700    313.800
   30    27    29      1    107.800    276.100
   28    27    30      1    107.800    276.100

[ dihedrals ]
;  ai    aj    ak    al   func    coefficients
    2     1     4     5      5    0.00000   0.00000   1.25520   0.00000
    2     1     4     6      5    0.00000   0.00000   1.25520   0.00000
    2     1     4     7      5    0.00000   0.00000   1.25520   0.00000
    3     1     4     5      5    0.00000   0.00000   1.25520   0.00000
    3     1     4     6      5    0.00000   0.00000   1.25520   0.00000
    3     1     4     7      5    0.00000   0.00000   1.25520   0.00000
   13     1     4     5      5   -4.23840  -2.96650   1.97900   0.00000
   13     1     4     6      5   -4.23840  -2.96650   1.97900   0.00000
   13     1     4     7      5   10.00810  -2.82000   2.30120   0.00000
    2     1    13    10      5    0.00000   0.00000   2.34300   0.00000
    2     1    13    14      5    0.00000   0.00000   2.34300   0.00000
    2     1    13    18      5    0.00000   0.00000   2.34300   0.00000
    3     1    13    10      5    0.00000   0.00000   2.34300   0.00000
    3     1    13    14      5    0.00000   0.00000   2.34300   0.00000
    3     1    13    18      5    0.00000   0.00000   2.34300   0.00000
    4     1    13    10      5    1.74050  -0.53560   2.90790   0.00000
    4     1    13    14      5    1.74050  -0.53560   2.90790   0.00000
    4     1    13    18      5    1.74050  -0.53560   2.90790   0.00000
    1     4     7     8      5    0.00000   0.00000   1.25520   0.00000
    1     4     7     9      5    0.00000   0.00000   1.25520   0.00000
    1     4     7    10      5    5.43920  -0.20920   0.83680   0.00000
    5     4     7     8      5    0.00000   0.00000   1.25520   0.00000
    5     4     7     9      5    0.00000   0.00000   1.25520   0.00000
    5     4     7    10      5    0.00000   0.00000   1.25520   0.00000
    6     4     7     8      5    0.00000   0.00000   1.25520   0.00000
    6     4     7     9      5    0.00000   0.00000   1.25520   0.00000
    6     4     7    10      5    0.00000   0.00000   1.25520   0.00000
    4     7    10    11      5    0.00000   0.00000   1.25520   0.00000
    4     7    10    12      5    0.00000   0.00000   1.25520   0.00000
    4     7    10    13      5   10.00810  -2.82000   2.30120   0.00000
    8     7    10    11      5    0.00000   0.00000   1.25520   0.00000
    8     7    10    12      5    0.00000   0.00000   1.25520   0.00000
    8     7    10    13      5   -4.23840  -2.96650   1.97900   0.00000
    9     7    10    11      5    0.00000   0.00000   1.25520   0.00000
    9     7    10    12      5    0.00000   0.00000   1.25520   0.00000
    9     7    10    13      5   -4.23840  -2.96650   1.97900   0.00000
    7    10    13     1      5    1.74050  -0.53560   2.90790   0.00000
    7    10    13    14      5    1.74050  -0.53560   2.90790   0.00000
    7    10    13    18      5    1.74050  -0.53560   2.90790   0.00000
   11    10    13     1      5    0.00000   0.00000   2.34300   0.00000
   11    10    13    14      5    0.00000   0.00000   2.34300   0.00000
   11    10    13    18      5    0.00000   0.00000   2.34300   0.00000
   12    10    13     1      5    0.00000   0.00000   2.34300   0.00000
   12    10    13    14      5    0.00000   0.00000   2.34300   0.00000
   12    10    13    18      5    0.00000   0.00000   2.34300   0.00000
    1    13    14    15      5    0.00000   0.00000   2.34300   0.00000
    1    13    14    16      5    0.00000   0.00000   2.34300   0.00000
    1    13    14    17      5    0.00000   0.00000   2.34300   0.00000
   10    13    14    15      5    0.00000   0.00000   2.34300   0.00000
   10    13    14    16      5    0.00000   0.00000   2.34300   0.00000
   10    13    14    17      5    0.00000   0.00000   2.34300   0.00000
   18    13    14    15      5    0.00000   0.00000   2.34300   0.00000
   18    13    14    16      5    0.00000   0.00000   2.34300   0.00000
   18    13    14    17      5    0.00000   0.00000   2.34300   0.00000
    1    13    18    19      5    0.00000   0.00000   2.34300   0.00000
    1    13    18    20      5    0.00000   0.00000   2.34300   0.00000
    1    13    18    21      5    1.74050  -0.53560   2.90790   0.00000
   10    13    18    19      5    0.00000   0.00000   2.34300   0.00000
   10    13    18    20      5    0.00000   0.00000   2.34300   0.00000
   10    13    18    21      5    1.74050  -0.53560   2.90790   0.00000
   14    13    18    19      5    0.00000   0.00000   2.34300   0.00000
   14    13    18    20      5    0.00000   0.00000   2.34300   0.00000
   14    13    18    21      5    1.74050  -0.53560   2.90790   0.00000
   13    18    21    22      5   -4.23840  -2.96650   1.97900   0.00000
   13    18    21    23      5   -4.23840  -2.96650   1.97900   0.00000
   13    18    21    24      5   10.00810  -2.82000   2.30120   0.00000
   19    18    21    22      5    0.00000   0.00000   1.25520   0.00000
   19    18    21    23      5    0.00000   0.00000   1.25520   0.00000
   19    18    21    24      5    0.00000   0.00000   1.25520   0.00000
   20    18    21    22      5    0.00000   0.00000   1.25520   0.00000
   20    18    21    23      5    0.00000   0.00000   1.25520   0.00000
   20    18    21    24      5    0.00000   0.00000   1.25520   0.00000
   18    21    24    25      5    0.00000   0.00000   1.25520   0.00000
   18    21    24    26      5    0.00000   0.00000   1.25520   0.00000
   18    21    24    27      5    5.43920  -0.20920   0.83680   0.00000
   22    21    24    25      5    0.00000   0.00000   1.25520   0.00000
   22    21    24    26      5    0.00000   0.00000   1.25520   0.00000
   22    21    24    27      5    0.00000   0.00000   1.25520   0.00000
   23    21    24    25      5    0.00000   0.00000   1.25520   0.00000
   23    21    24    26      5    0.00000   0.00000   1.25520   0.00000
   23    21    24    27      5    0.00000   0.00000   1.25520   0.00000
   21    24    27    28      5    0.00000   0.00000   1.25520   0.00000
   21    24    27    29      5    0.00000   0.00000   1.25520   0.00000
   25    24    27    28      5    0.00000   0.00000   1.25520   0.00000
   25    24    27    29      5    0.00000   0.00000   1.25520   0.00000
   26    24    27    28      5    0.00000   0.00000   1.25520   0.00000
   26    24    27    29      5    0.00000   0.00000   1.25520   0.00000
   21    24    27    30      5    0.00000   0.00000   1.25520   0.00000
   25    24    27    30      5    0.00000   0.00000   1.25520   0.00000
   26    24    27    30      5    0.00000   0.00000   1.25520   0.00000


[ pairs ]
;   ai   aj   func
    2     5      1
    2     6      1
    2     7      1
    3     5      1
    3     6      1
    3     7      1
   13     5      1
   13     6      1
    2    10      1
    2    14      1
    2    18      1
    3    10      1
    3    14      1
    3    18      1
    4    14      1
    4    18      1
    1     8      1
    1     9      1
    5     8      1
    5     9      1
    5    10      1
    6     8      1
    6     9      1
    6    10      1
    4    11      1
    4    12      1
    8    11      1
    8    12      1
    8    13      1
    9    11      1
    9    12      1
    9    13      1
    7    14      1
    7    18      1
   11     1      1
   11    14      1
   11    18      1
   12     1      1
   12    14      1
   12    18      1
    1    15      1
    1    16      1
    1    17      1
   10    15      1
   10    16      1
   10    17      1
   18    15      1
   18    16      1
   18    17      1
    1    19      1
    1    20      1
    1    21      1
   10    19      1
   10    20      1
   10    21      1
   14    19      1
   14    20      1
   14    21      1
   13    22      1
   13    23      1
   13    24      1
   19    22      1
   19    23      1
   19    24      1
   20    22      1
   20    23      1
   20    24      1
   18    25      1
   18    26      1
   18    27      1
   22    25      1
   22    26      1
   22    27      1
   23    25      1
   23    26      1
   23    27      1
   21    28      1
   21    29      1
   25    28      1
   25    29      1
   26    28      1
   26    29      1
   21    30      1
   25    30      1
   26    30      1