[ moleculetype ]
; name       nrexcl
SO1               3

[ atoms ]
;  nr   type  resnr  residu   atom   cgnr    charge
    1   SO        1  SO1      SO        1    1.1800
    2   OS4       1  SO1      OS4       1   -0.6500
    3   OS4       1  SO1      OS4       1   -0.6500
    4   OS4       1  SO1      OS4       1   -0.6500
    5   OC4       1  SO1      OC4       1   -0.4500
    6   CS4       1  SO1      CS4       1    0.2200
    7   HS4       1  SO1      HS4       1    0.0000
    8   HS4       1  SO1      HS4       1    0.0000
    9   CS        1  SO1      CS        1   -0.1200
   10   HC        1  SO1      HC        1    0.0600
   11   HC        1  SO1      HC        1    0.0600
   12   CS        1  SO1      CS        1   -0.1200
   13   HC        1  SO1      HC        1    0.0600
   14   HC        1  SO1      HC        1    0.0600
   15   CS        1  SO1      CS        1   -0.1200
   16   HC        1  SO1      HC        1    0.0600
   17   HC        1  SO1      HC        1    0.0600
   18   CS        1  SO1      CS        1   -0.1200
   19   HC        1  SO1      HC        1    0.0600
   20   HC        1  SO1      HC        1    0.0600
   21   CS        1  SO1      CS        1   -0.1200
   22   HC        1  SO1      HC        1    0.0600
   23   HC        1  SO1      HC        1    0.0600
   24   CS        1  SO1      CS        1   -0.1200
   25   HC        1  SO1      HC        1    0.0600
   26   HC        1  SO1      HC        1    0.0600
   27   CS        1  SO1      CS        1   -0.1200
   28   HC        1  SO1      HC        1    0.0600
   29   HC        1  SO1      HC        1    0.0600
   30   CS        1  SO1      CS        1   -0.1200
   31   HC        1  SO1      HC        1    0.0600
   32   HC        1  SO1      HC        1    0.0600
   33   CT        1  SO1      CT        1   -0.1800
   34   HC        1  SO1      HC        1    0.0600
   35   HC        1  SO1      HC        1    0.0600
   36   HC        1  SO1      HC        1    0.0600

[ bonds ]
;  ai    aj   func    b0        kb
    1     2      1    0.14550   533100.0
    1     3      1    0.14550   533100.0
    1     4      1    0.14550   533100.0
    1     5      1    0.16330   178960.0
    5     6      1    0.14020    74580.0
    6     9      1    0.15290   224200.0
    9    12      1    0.15290   224200.0
   12    15      1    0.15290   224200.0
   15    18      1    0.15290   224200.0
   18    21      1    0.15290   224200.0
   21    24      1    0.15290   224200.0
   24    27      1    0.15290   224200.0
   27    30      1    0.15290   224200.0
   30    33      1    0.15290   224200.0

[ constraints ]
;  ai    aj   func    b0
    6     7      1    0.10900
    6     8      1    0.10900
    9    10      1    0.10900
    9    11      1    0.10900
   12    13      1    0.10900
   12    14      1    0.10900
   15    16      1    0.10900
   15    17      1    0.10900
   18    19      1    0.10900
   18    20      1    0.10900
   21    22      1    0.10900
   21    23      1    0.10900
   24    25      1    0.10900
   24    26      1    0.10900
   27    28      1    0.10900
   27    29      1    0.10900
   30    31      1    0.10900
   30    32      1    0.10900
   33    34      1    0.10900
   33    35      1    0.10900
   33    36      1    0.10900

[ angles ]
;  ai    aj    ak   func    th0        cth
    2     1     3      1    114.000    969.000
    2     1     5      1    103.500   1239.600
    3     1     5      1    103.500   1239.600
    2     1     4      1    114.000    969.000
    4     1     3      1    114.000    969.000
    4     1     5      1    103.500   1239.600
    1     5     6      1    116.600    300.500
    5     6     7      1    109.700    488.700
    5     6     8      1    109.700    488.700
    5     6     9      1    107.800    765.600
    7     6     8      1    107.800    276.100
    7     6     9      1    110.700    313.800
    8     6     9      1    110.700    313.800
    6     9    10      1    110.700    313.800
    6     9    11      1    110.700    313.800
    6     9    12      1    112.700    488.300
   10     9    11      1    107.800    276.100
   10     9    12      1    110.700    313.800
   11     9    12      1    110.700    313.800
    9    12    13      1    110.700    313.800
    9    12    14      1    110.700    313.800
    9    12    15      1    112.700    488.300
   13    12    14      1    107.800    276.100
   13    12    15      1    110.700    313.800
   14    12    15      1    110.700    313.800
   12    15    16      1    110.700    313.800
   12    15    17      1    110.700    313.800
   12    15    18      1    112.700    488.300
   16    15    17      1    107.800    276.100
   16    15    18      1    110.700    313.800
   17    15    18      1    110.700    313.800
   15    18    19      1    110.700    313.800
   15    18    20      1    110.700    313.800
   15    18    21      1    112.700    488.300
   19    18    20      1    107.800    276.100
   19    18    21      1    110.700    313.800
   20    18    21      1    110.700    313.800
   18    21    22      1    110.700    313.800
   18    21    23      1    110.700    313.800
   18    21    24      1    112.700    488.300
   22    21    23      1    107.800    276.100
   22    21    24      1    110.700    313.800
   23    21    24      1    110.700    313.800
   21    24    25      1    110.700    313.800
   21    24    26      1    110.700    313.800
   21    24    27      1    112.700    488.300
   25    24    26      1    107.800    276.100
   25    24    27      1    110.700    313.800
   26    24    27      1    110.700    313.800
   24    27    28      1    110.700    313.800
   24    27    29      1    110.700    313.800
   24    27    30      1    112.700    488.300
   28    27    29      1    107.800    276.100
   28    27    30      1    110.700    313.800
   29    27    30      1    110.700    313.800
   27    30    31      1    110.700    313.800
   27    30    32      1    110.700    313.800
   27    30    33      1    112.700    488.300
   31    30    32      1    107.800    276.100
   31    30    33      1    110.700    313.800
   32    30    33      1    110.700    313.800
   30    33    34      1    110.700    313.800
   30    33    35      1    110.700    313.800
   30    33    36      1    110.700    313.800
   34    33    35      1    107.800    276.100
   34    33    36      1    107.800    276.100
   35    33    36      1    107.800    276.100

[ dihedrals ]
;  ai    aj    ak    al   func    coefficients
    2     1     5     6      5    0.00000   0.00000   2.48150   0.00000
    3     1     5     6      5    0.00000   0.00000   2.48150   0.00000
    4     1     5     6      5    0.00000   0.00000   2.48150   0.00000
    1     5     6     7      5    0.00000   0.00000   1.68580   0.00000
    1     5     6     8      5    0.00000   0.00000   1.68580   0.00000
    1     5     6     9      5   -6.01420  -3.11330   1.49410   0.00000
    5     6     9    10      5    0.00000   0.00000   2.06980   0.00000
    5     6     9    11      5    0.00000   0.00000   2.06980   0.00000
    5     6     9    12      5    4.38930  -1.82730   2.97050   0.00000
    7     6     9    10      5    0.00000   0.00000   1.25520   0.00000
    7     6     9    11      5    0.00000   0.00000   1.25520   0.00000
    7     6     9    12      5    0.00000   0.00000   1.25520   0.00000
    8     6     9    10      5    0.00000   0.00000   1.25520   0.00000
    8     6     9    11      5    0.00000   0.00000   1.25520   0.00000
    8     6     9    12      5    0.00000   0.00000   1.25520   0.00000
    6     9    12    13      5    0.00000   0.00000   1.25520   0.00000
    6     9    12    14      5    0.00000   0.00000   1.25520   0.00000
    6     9    12    15      5    5.43920  -0.20920   0.83680   0.00000
   10     9    12    13      5    0.00000   0.00000   1.25520   0.00000
   10     9    12    14      5    0.00000   0.00000   1.25520   0.00000
   10     9    12    15      5    0.00000   0.00000   1.25520   0.00000
   11     9    12    13      5    0.00000   0.00000   1.25520   0.00000
   11     9    12    14      5    0.00000   0.00000   1.25520   0.00000
   11     9    12    15      5    0.00000   0.00000   1.25520   0.00000
    9    12    15    16      5    0.00000   0.00000   1.25520   0.00000
    9    12    15    17      5    0.00000   0.00000   1.25520   0.00000
    9    12    15    18      5    5.43920  -0.20920   0.83680   0.00000
   13    12    15    16      5    0.00000   0.00000   1.25520   0.00000
   13    12    15    17      5    0.00000   0.00000   1.25520   0.00000
   13    12    15    18      5    0.00000   0.00000   1.25520   0.00000
   14    12    15    16      5    0.00000   0.00000   1.25520   0.00000
   14    12    15    17      5    0.00000   0.00000   1.25520   0.00000
   14    12    15    18      5    0.00000   0.00000   1.25520   0.00000
   12    15    18    19      5    0.00000   0.00000   1.25520   0.00000
   12    15    18    20      5    0.00000   0.00000   1.25520   0.00000
   12    15    18    21      5    5.43920  -0.20920   0.83680   0.00000
   16    15    18    19      5    0.00000   0.00000   1.25520   0.00000
   16    15    18    20      5    0.00000   0.00000   1.25520   0.00000
   16    15    18    21      5    0.00000   0.00000   1.25520   0.00000
   17    15    18    19      5    0.00000   0.00000   1.25520   0.00000
   17    15    18    20      5    0.00000   0.00000   1.25520   0.00000
   17    15    18    21      5    0.00000   0.00000   1.25520   0.00000
   15    18    21    22      5    0.00000   0.00000   1.25520   0.00000
   15    18    21    23      5    0.00000   0.00000   1.25520   0.00000
   15    18    21    24      5    5.43920  -0.20920   0.83680   0.00000
   19    18    21    22      5    0.00000   0.00000   1.25520   0.00000
   19    18    21    23      5    0.00000   0.00000   1.25520   0.00000
   19    18    21    24      5    0.00000   0.00000   1.25520   0.00000
   20    18    21    22      5    0.00000   0.00000   1.25520   0.00000
   20    18    21    23      5    0.00000   0.00000   1.25520   0.00000
   20    18    21    24      5    0.00000   0.00000   1.25520   0.00000
   18    21    24    25      5    0.00000   0.00000   1.25520   0.00000
   18    21    24    26      5    0.00000   0.00000   1.25520   0.00000
   18    21    24    27      5    5.43920  -0.20920   0.83680   0.00000
   22    21    24    25      5    0.00000   0.00000   1.25520   0.00000
   22    21    24    26      5    0.00000   0.00000   1.25520   0.00000
   22    21    24    27      5    0.00000   0.00000   1.25520   0.00000
   23    21    24    25      5    0.00000   0.00000   1.25520   0.00000
   23    21    24    26      5    0.00000   0.00000   1.25520   0.00000
   23    21    24    27      5    0.00000   0.00000   1.25520   0.00000
   21    24    27    28      5    0.00000   0.00000   1.25520   0.00000
   21    24    27    29      5    0.00000   0.00000   1.25520   0.00000
   21    24    27    30      5    5.43920  -0.20920   0.83680   0.00000
   25    24    27    28      5    0.00000   0.00000   1.25520   0.00000
   25    24    27    29      5    0.00000   0.00000   1.25520   0.00000
   25    24    27    30      5    0.00000   0.00000   1.25520   0.00000
   26    24    27    28      5    0.00000   0.00000   1.25520   0.00000
   26    24    27    29      5    0.00000   0.00000   1.25520   0.00000
   26    24    27    30      5    0.00000   0.00000   1.25520   0.00000
   24    27    30    31      5    0.00000   0.00000   1.25520   0.00000
   24    27    30    32      5    0.00000   0.00000   1.25520   0.00000
   24    27    30    33      5    5.43920  -0.20920   0.83680   0.00000
   28    27    30    31      5    0.00000   0.00000   1.25520   0.00000
   28    27    30    32      5    0.00000   0.00000   1.25520   0.00000
   28    27    30    33      5    0.00000   0.00000   1.25520   0.00000
   29    27    30    31      5    0.00000   0.00000   1.25520   0.00000
   29    27    30    32      5    0.00000   0.00000   1.25520   0.00000
   29    27    30    33      5    0.00000   0.00000   1.25520   0.00000
   27    30    33    34      5    0.00000   0.00000   1.25520   0.00000
   27    30    33    35      5    0.00000   0.00000   1.25520   0.00000
   27    30    33    36      5    0.00000   0.00000   1.25520   0.00000
   31    30    33    34      5    0.00000   0.00000   1.25520   0.00000
   31    30    33    35      5    0.00000   0.00000   1.25520   0.00000
   31    30    33    36      5    0.00000   0.00000   1.25520   0.00000
   32    30    33    34      5    0.00000   0.00000   1.25520   0.00000
   32    30    33    35      5    0.00000   0.00000   1.25520   0.00000
   32    30    33    36      5    0.00000   0.00000   1.25520   0.00000

[ pairs ]
;   ai   aj   func
    2     6      1
    3     6      1
    4     6      1
    1     7      1
    1     8      1
    1     9      1
    5    10      1
    5    11      1
    5    12      1
    7    10      1
    7    11      1
    7    12      1
    8    10      1
    8    11      1
    8    12      1
    6    13      1
    6    14      1
    6    15      1
   10    13      1
   10    14      1
   10    15      1
   11    13      1
   11    14      1
   11    15      1
    9    16      1
    9    17      1
    9    18      1
   13    16      1
   13    17      1
   13    18      1
   14    16      1
   14    17      1
   14    18      1
   12    19      1
   12    20      1
   12    21      1
   16    19      1
   16    20      1
   16    21      1
   17    19      1
   17    20      1
   17    21      1
   15    22      1
   15    23      1
   15    24      1
   19    22      1
   19    23      1
   19    24      1
   20    22      1
   20    23      1
   20    24      1
   18    25      1
   18    26      1
   18    27      1
   22    25      1
   22    26      1
   22    27      1
   23    25      1
   23    26      1
   23    27      1
   21    28      1
   21    29      1
   21    30      1
   25    28      1
   25    29      1
   25    30      1
   26    28      1
   26    29      1
   26    30      1
   24    31      1
   24    32      1
   24    33      1
   28    31      1
   28    32      1
   28    33      1
   29    31      1
   29    32      1
   29    33      1
   27    34      1
   27    35      1
   27    36      1
   31    34      1
   31    35      1
   31    36      1
   32    34      1
   32    35      1
   32    36      1

