[ atomtypes ]
; name  at.nr     mass   charge  ptype  sigma        epsilon
SO         16  32.0660   1.1800      A  3.55000e-01  1.04600e+00
OS4         8  15.9990  -0.6500      A  3.15000e-01  8.37000e-01
OC4         8  15.9990  -0.4500      A  2.90000e-01  5.86000e-01
CS4         6  12.0110   0.2200      A  3.50000e-01  2.76000e-01
HS4         1   1.0080   0.0000      A  2.50000e-01  1.26000e-01
CT          6  12.0110  -0.1800      A  3.50000e-01  2.76140e-01
HC          1   1.0080   0.0600      A  2.50000e-01  1.25520e-01

