[ moleculetype ]
; name       nrexcl
SO4               3

[ atoms ]
;  nr   type  resnr  residu   atom   cgnr    charge
    1   SO        1  SO4      SO        1    1.1800
    2   OS4       1  SO4      OS4       1   -0.6500
    3   OS4       1  SO4      OS4       1   -0.6500
    4   OS4       1  SO4      OS4       1   -0.6500
    5   OC4       1  SO4      OC4       1   -0.4500
    6   CS4       1  SO4      CS4       1    0.2200
    7   HS4       1  SO4      HS4       1    0.0000
    8   HS4       1  SO4      HS4       1    0.0000
    9   CS        1  SO4      CS        1   -0.1200
   10   HC        1  SO4      HC        1    0.0600
   11   HC        1  SO4      HC        1    0.0600
   12   CS        1  SO4      CS        1   -0.1200
   13   HC        1  SO4      HC        1    0.0600
   14   HC        1  SO4      HC        1    0.0600
   15   CT        1  SO4      CT        1   -0.1800
   16   HC        1  SO4      HC        1    0.0600
   17   HC        1  SO4      HC        1    0.0600
   18   HC        1  SO4      HC        1    0.0600

[ bonds ]
;  ai    aj   func    b0        kb
    1     2      1    0.14550   533100.0
    1     3      1    0.14550   533100.0
    1     4      1    0.14550   533100.0
    1     5      1    0.16330   178960.0
    5     6      1    0.14020    74580.0
    6     9      1    0.15290   224200.0
    9    12      1    0.15290   224200.0
   12    15      1    0.15290   224200.0

[ constraints ]
;  ai    aj   func    b0
    6     7      1    0.10900
    6     8      1    0.10900
    9    10      1    0.10900
    9    11      1    0.10900
   12    13      1    0.10900
   12    14      1    0.10900
   15    16      1    0.10900
   15    17      1    0.10900
   15    18      1    0.10900


[ angles ]
;  ai    aj    ak   func    th0        cth
    2     1     3      1    114.000    969.000
    2     1     5      1    103.500   1239.600
    3     1     5      1    103.500   1239.600
    4     1     3      1    114.000    969.000
    2     1     4      1    114.000    969.000
    4     1     5      1    103.500   1239.600
    1     5     6      1    116.600    300.500
    5     6     7      1    109.700    488.700
    5     6     8      1    109.700    488.700
    5     6     9      1    107.800    765.600
    7     6     8      1    107.800    276.100
    7     6     9      1    110.700    313.800
    8     6     9      1    110.700    313.800
    6     9    10      1    110.700    313.800
    6     9    11      1    110.700    313.800
    6     9    12      1    112.700    488.300
   10     9    11      1    107.800    276.100
   10     9    12      1    110.700    313.800
   11     9    12      1    110.700    313.800
    9    12    13      1    110.700    313.800
    9    12    14      1    110.700    313.800
    9    12    15      1    112.700    488.300
   13    12    14      1    107.800    276.100
   13    12    15      1    110.700    313.800
   14    12    15      1    110.700    313.800
   12    15    16      1    110.700    313.800
   12    15    17      1    110.700    313.800
   16    15    17      1    107.800    276.100
   12    15    18      1    110.700    313.800
   16    15    18      1    107.800    276.100
   18    15    17      1    107.800    276.100

[ dihedrals ]
;  ai    aj    ak    al   func    coefficients
    2     1     5     6      5    0.00000   0.00000   2.48150   0.00000
    3     1     5     6      5    0.00000   0.00000   2.48150   0.00000
    4     1     5     6      5    0.00000   0.00000   2.48150   0.00000
    1     5     6     7      5    0.00000   0.00000   1.68580   0.00000
    1     5     6     8      5    0.00000   0.00000   1.68580   0.00000
    1     5     6     9      5   -6.01420  -3.11330   1.49410   0.00000
    5     6     9    10      5    0.00000   0.00000   2.06980   0.00000
    5     6     9    11      5    0.00000   0.00000   2.06980   0.00000
    5     6     9    12      5    4.38930  -1.82730   2.97050   0.00000
    7     6     9    10      5    0.00000   0.00000   1.25520   0.00000
    7     6     9    11      5    0.00000   0.00000   1.25520   0.00000
    7     6     9    12      5    0.00000   0.00000   1.25520   0.00000
    8     6     9    10      5    0.00000   0.00000   1.25520   0.00000
    8     6     9    11      5    0.00000   0.00000   1.25520   0.00000
    8     6     9    12      5    0.00000   0.00000   1.25520   0.00000
    6     9    12    13      5    0.00000   0.00000   1.25520   0.00000
    6     9    12    14      5    0.00000   0.00000   1.25520   0.00000
    6     9    12    15      5    5.43920  -0.20920   0.83680   0.00000
   10     9    12    13      5    0.00000   0.00000   1.25520   0.00000
   10     9    12    14      5    0.00000   0.00000   1.25520   0.00000
   10     9    12    15      5    0.00000   0.00000   1.25520   0.00000
   11     9    12    13      5    0.00000   0.00000   1.25520   0.00000
   11     9    12    14      5    0.00000   0.00000   1.25520   0.00000
   11     9    12    15      5    0.00000   0.00000   1.25520   0.00000
    9    12    15    16      5    0.00000   0.00000   1.25520   0.00000
    9    12    15    17      5    0.00000   0.00000   1.25520   0.00000
   13    12    15    16      5    0.00000   0.00000   1.25520   0.00000
   13    12    15    17      5    0.00000   0.00000   1.25520   0.00000
   14    12    15    16      5    0.00000   0.00000   1.25520   0.00000
   14    12    15    17      5    0.00000   0.00000   1.25520   0.00000
    9    12    15    18      5    0.00000   0.00000   1.25520   0.00000
   13    12    15    18      5    0.00000   0.00000   1.25520   0.00000
   14    12    15    18      5    0.00000   0.00000   1.25520   0.00000

[ pairs ]
;   ai   aj   func
    2     6      1
    4     6      1
    3     6      1
    1     7      1
    1     8      1
    1     9      1
    5    10      1
    5    11      1
    5    12      1
    7    10      1
    7    11      1
    7    12      1
    8    10      1
    8    11      1
    8    12      1
    6    13      1
    6    14      1
    6    15      1
   10    13      1
   10    14      1
   10    15      1
   11    13      1
   11    14      1
   11    15      1
    9    16      1
    9    17      1
   13    16      1
   13    17      1
   14    16      1
   14    17      1
    9    18      1
   13    18      1
   14    18      1

