[ moleculetype ]
; name       nrexcl
TFS               3

[ atoms ]
;  nr   type  resnr  residu   atom   cgnr    charge
    1   NBT       1  TFS      NBT       1   -0.6600
    2   SBT       1  TFS      SBT       1    1.0200
    3   SBT       1  TFS      SBT       1    1.0200
    4   OBT       1  TFS      OBT       1   -0.5300
    5   C1F       1  TFS      C1F       1    0.1900
    6   OBT       1  TFS      OBT       1   -0.5300
    7   OBT       1  TFS      OBT       1   -0.5300
    8   OBT       1  TFS      OBT       1   -0.5300
    9   CEF       1  TFS      CEF       1    0.3600
   10   F1        1  TFS      F1        1   -0.1600
   11   F1        1  TFS      F1        1   -0.1600
   12   C1F       1  TFS      C1F       1    0.1900
   13   CEF       1  TFS      CEF       1    0.3600
   14   F1        1  TFS      F1        1   -0.1600
   15   F1        1  TFS      F1        1   -0.1600
   16   F         1  TFS      F         1   -0.1200
   17   F         1  TFS      F         1   -0.1200
   18   F         1  TFS      F         1   -0.1200
   19   F         1  TFS      F         1   -0.1200
   20   F         1  TFS      F         1   -0.1200
   21   F         1  TFS      F         1   -0.1200

[ bonds ]
;  ai    aj   func    b0        kb
    1     2      1    0.15700   313700.0
    1     3      1    0.15700   313700.0
    2     7      1    0.14370   533100.0
    2     8      1    0.14370   533100.0
    2    12      1    0.18180   195000.0
    3     4      1    0.14370   533100.0
    3     5      1    0.18180   195000.0
    3     6      1    0.14370   533100.0
    5     9      1    0.15290   224260.0
    5    10      1    0.13230   369800.0
    5    11      1    0.13230   369800.0
    9    19      1    0.13320   307110.0
    9    20      1    0.13320   307110.0
    9    21      1    0.13320   307110.0
   12    13      1    0.15290   224260.0
   12    14      1    0.13230   369800.0
   12    15      1    0.13230   369800.0
   13    16      1    0.13320   307110.0
   13    17      1    0.13320   307110.0
   13    18      1    0.13320   307110.0

[ constraints ]
;  ai    aj   func    b0

[ angles ]
;  ai    aj    ak   func    th0        cth
    2     1     3      1    125.600    671.000
    1     2     7      1    113.600    789.000
    1     2     8      1    113.600    789.000
    1     2    12      1    103.500    764.000
    7     2    12      1    102.600    870.000
    8     2    12      1    102.600    870.000
    1     3     4      1    113.600    789.000
    1     3     5      1    103.500    764.000
    1     3     6      1    113.600    789.000
    4     3     5      1    102.600    870.000
    5     3     6      1    102.600    870.000
    3     5     9      1    115.900    418.400
    3     5    10      1    111.700    694.000
    3     5    11      1    111.700    694.000
    9     5    10      1    109.500    418.400
    9     5    11      1    109.500    418.400
   10     5    11      1    107.100    781.000
    5     9    19      1    109.500    418.400
    5     9    20      1    109.500    418.400
    5     9    21      1    109.500    418.400
   19     9    20      1    109.100    644.300
   19     9    21      1    109.100    644.300
   20     9    21      1    109.100    644.300
    2    12    13      1    115.900    418.400
    2    12    14      1    111.700    694.000
    2    12    15      1    111.700    694.000
   13    12    14      1    109.500    418.400
   13    12    15      1    109.500    418.400
   14    12    15      1    107.100    781.000
   12    13    16      1    109.500    418.400
   12    13    17      1    109.500    418.400
   12    13    18      1    109.500    418.400
   16    13    17      1    109.100    644.300
   16    13    18      1    109.100    644.300
   17    13    18      1    109.100    644.300
    7     2     8      1    118.500    969.000 ; O S O, from TFSI
    4     3     6      1    118.500    969.000 ; O S O, from TFSI

[ dihedrals ]
;  ai    aj    ak    al   func    coefficients
    3     1     2     7      5    0.00000   0.00000  -0.01500   0.00000
    3     1     2     8      5    0.00000   0.00000  -0.01500   0.00000
    3     1     2    12      5   32.77300 -10.42000  -3.19500   0.00000
    2     1     3     4      5    0.00000   0.00000  -0.01500   0.00000
    2     1     3     5      5   32.77300 -10.42000  -3.19500   0.00000
    2     1     3     6      5    0.00000   0.00000  -0.01500   0.00000
    1     2    12    13      5   -3.09400   0.00000   0.00000   0.00000
    1     2    12    14      5    0.00000   0.00000   1.32200   0.00000
    1     2    12    15      5    0.00000   0.00000   1.32200   0.00000
    7     2    12    13      5    0.00000   0.00000  -0.74000   0.00000
    7     2    12    14      5    0.00000   0.00000   1.45100   0.00000
    7     2    12    15      5    0.00000   0.00000   1.45100   0.00000
    8     2    12    13      5    0.00000   0.00000  -0.74000   0.00000
    8     2    12    14      5    0.00000   0.00000   1.45100   0.00000
    8     2    12    15      5    0.00000   0.00000   1.45100   0.00000
    1     3     5     9      5   -3.09400   0.00000   0.00000   0.00000
    1     3     5    10      5    0.00000   0.00000   1.32200   0.00000
    1     3     5    11      5    0.00000   0.00000   1.32200   0.00000
    4     3     5     9      5    0.00000   0.00000  -0.74000   0.00000
    4     3     5    10      5    0.00000   0.00000   1.45100   0.00000
    4     3     5    11      5    0.00000   0.00000   1.45100   0.00000
    6     3     5     9      5    0.00000   0.00000  -0.74000   0.00000
    6     3     5    10      5    0.00000   0.00000   1.45100   0.00000
    6     3     5    11      5    0.00000   0.00000   1.45100   0.00000
    3     5     9    19      5    0.00000   0.00000   1.45300   0.00000
    3     5     9    20      5    0.00000   0.00000   1.45300   0.00000
    3     5     9    21      5    0.00000   0.00000   1.45300   0.00000
   10     5     9    19      5  -10.46000   0.00000   1.04600   0.00000
   10     5     9    20      5  -10.46000   0.00000   1.04600   0.00000
   10     5     9    21      5  -10.46000   0.00000   1.04600   0.00000
   11     5     9    19      5  -10.46000   0.00000   1.04600   0.00000
   11     5     9    20      5  -10.46000   0.00000   1.04600   0.00000
   11     5     9    21      5  -10.46000   0.00000   1.04600   0.00000
    2    12    13    16      5    0.00000   0.00000   1.45300   0.00000
    2    12    13    17      5    0.00000   0.00000   1.45300   0.00000
    2    12    13    18      5    0.00000   0.00000   1.45300   0.00000
   14    12    13    16      5  -10.46000   0.00000   1.04600   0.00000
   14    12    13    17      5  -10.46000   0.00000   1.04600   0.00000
   14    12    13    18      5  -10.46000   0.00000   1.04600   0.00000
   15    12    13    16      5  -10.46000   0.00000   1.04600   0.00000
   15    12    13    17      5  -10.46000   0.00000   1.04600   0.00000
   15    12    13    18      5  -10.46000   0.00000   1.04600   0.00000

[ pairs ]
;   ai   aj   func
    3     7      1
    3     8      1
    3    12      1
    2     4      1
    2     5      1
    2     6      1
    1    13      1
    1    14      1
    1    15      1
    7    13      1
    7    14      1
    7    15      1
    8    13      1
    8    14      1
    8    15      1
    1     9      1
    1    10      1
    1    11      1
    4     9      1
    4    10      1
    4    11      1
    6     9      1
    6    10      1
    6    11      1
    3    19      1
    3    20      1
    3    21      1
   10    19      1
   10    20      1
   10    21      1
   11    19      1
   11    20      1
   11    21      1
    2    16      1
    2    17      1
    2    18      1
   14    16      1
   14    17      1
   14    18      1
   15    16      1
   15    17      1
   15    18      1

