[ moleculetype ]
; name       nrexcl
TFS             3

[ atoms ]
;  nr   type  resnr  residu  atom   cgnr    charge
    1   NBT       1  TFS     NBT       1    -0.66
    2   SBT       1  TFS     SBT       2     1.02
    3   SBT       1  TFS     SBT       3     1.02
    4   OBT       1  TFS     OBT       4    -0.53
    5   OBT       1  TFS     OBT       5    -0.53
    6   OBT       1  TFS     OBT       6    -0.53
    7   OBT       1  TFS     OBT       7    -0.53
    8   CB1       1  TFS     CB1       8     0.19
    9   CB2       1  TFS     CB2       9     0.24
   10   CB3       1  TFS     CB3      10     0.24
   11   CB4       1  TFS     CB4      11     0.36
   12   CB1       1  TFS     CB1      12     0.19
   13   CB2       1  TFS     CB2      13     0.24
   14   CB3       1  TFS     CB3      14     0.24
   15   CB4       1  TFS     CB4      15     0.36
   16   FB1       1  TFS     FB1      16    -0.16
   17   FB1       1  TFS     FB1      17    -0.16
   18   FB2       1  TFS     FB2      18    -0.12
   19   FB2       1  TFS     FB2      19    -0.12
   20   FB3       1  TFS     FB3      20    -0.12
   21   FB3       1  TFS     FB3      21    -0.12
   22   FB4       1  TFS     FB4      22    -0.12
   23   FB4       1  TFS     FB4      23    -0.12
   24   FB4       1  TFS     FB4      24    -0.12
   25   FB1       1  TFS     FB1      25    -0.16
   26   FB1       1  TFS     FB1      26    -0.16
   27   FB2       1  TFS     FB2      27    -0.12
   28   FB2       1  TFS     FB2      28    -0.12
   29   FB3       1  TFS     FB3      29    -0.12
   30   FB3       1  TFS     FB3      30    -0.12
   31   FB4       1  TFS     FB4      31    -0.12
   32   FB4       1  TFS     FB4      32    -0.12
   33   FB4       1  TFS     FB4      33    -0.12

[ bonds ]
;  ai    aj   func    b0        kb
    2     1      1    0.15700   313700.0
    3     1      1    0.15700   313700.0
    4     2      1    0.14370   533100.0
    5     2      1    0.14370   533100.0
    6     3      1    0.14370   533100.0
    7     3      1    0.14370   533100.0
    8     2      1    0.18180   195000.0
    9     8      1    0.15290   224260.0
   10     9      1    0.15290   224260.0
   11    10      1    0.15290   224260.0
   12     3      1    0.18180   195000.0
   13    12      1    0.15290   224260.0
   14    13      1    0.15290   224260.0
   15    14      1    0.15290   224260.0
   16     8      1    0.13230   369800.0
   17     8      1    0.13230   369800.0
   18     9      1    0.13320   307110.0
   19     9      1    0.13320   307110.0
   20    10      1    0.13320   307110.0
   21    10      1    0.13320   307110.0
   22    11      1    0.13320   307110.0
   23    11      1    0.13320   307110.0
   24    11      1    0.13320   307110.0
   25    12      1    0.13230   369800.0
   26    12      1    0.13230   369800.0
   27    13      1    0.13320   307110.0
   28    13      1    0.13320   307110.0
   29    14      1    0.13320   307110.0
   30    14      1    0.13320   307110.0
   31    15      1    0.13320   307110.0
   32    15      1    0.13320   307110.0
   33    15      1    0.13320   307110.0

[ pairs ]
;   ai   aj   func
    1     9      1
    1    13      1
    1    16      1
    1    17      1
    1    25      1
    1    26      1
    2     6      1
    2     7      1
    2    10      1
    2    12      1
    2    18      1
    2    19      1
    3     4      1
    3     5      1
    3     8      1
    3    14      1
    3    27      1
    3    28      1
    4     9      1
    4    16      1
    4    17      1
    5     9      1
    5    16      1
    5    17      1
    6    13      1
    6    25      1
    6    26      1
    7    13      1
    7    25      1
    7    26      1
    8    11      1
    8    20      1
    8    21      1
    9    22      1
    9    23      1
    9    24      1
   10    16      1
   10    17      1
   11    18      1
   11    19      1
   12    15      1
   12    29      1
   12    30      1
   13    31      1
   13    32      1
   13    33      1
   14    25      1
   14    26      1
   15    27      1
   15    28      1
   16    18      1
   16    19      1
   17    18      1
   17    19      1
   18    20      1
   18    21      1
   19    20      1
   19    21      1
   20    22      1
   20    23      1
   20    24      1
   21    22      1
   21    23      1
   21    24      1
   25    27      1
   25    28      1
   26    27      1
   26    28      1
   27    29      1
   27    30      1
   28    29      1
   28    30      1
   29    31      1
   29    32      1
   29    33      1
   30    31      1
   30    32      1
   30    33      1

[ angles ]
;  ai    aj    ak   func    th0        cth
    2     1     3      1    125.600    671.000
    1     2     4      1    113.600    789.000
    1     2     5      1    113.600    789.000
    1     2     8      1    103.500    764.000
    4     2     5      1    118.500    969.000
    4     2     8      1    102.600    870.000
    5     2     8      1    102.600    870.000
    1     3     6      1    113.600    789.000
    1     3     7      1    113.600    789.000
    1     3    12      1    103.500    764.000
    6     3     7      1    118.500    969.000
    6     3    12      1    102.600    870.000
    7     3    12      1    102.600    870.000
    2     8     9      1    115.900    418.400
    2     8    16      1    111.700    694.000
    2     8    17      1    111.700    694.000
    9     8    16      1    109.500    418.400
    9     8    17      1    109.500    418.400
   16     8    17      1    107.100    781.000
    8     9    10      1    112.700    488.300
    8     9    18      1    109.500    418.400
    8     9    19      1    109.500    418.400
   10     9    18      1    109.500    418.400
   10     9    19      1    109.500    418.400
   18     9    19      1    109.100    644.300
    9    10    11      1    112.700    488.300
    9    10    20      1    109.500    418.400
    9    10    21      1    109.500    418.400
   11    10    20      1    109.500    418.400
   11    10    21      1    109.500    418.400
   20    10    21      1    109.100    644.300
   10    11    22      1    109.500    418.400
   10    11    23      1    109.500    418.400
   10    11    24      1    109.500    418.400
   22    11    23      1    109.100    644.300
   22    11    24      1    109.100    644.300
   23    11    24      1    109.100    644.300
    3    12    13      1    115.900    418.400
    3    12    25      1    111.700    694.000
    3    12    26      1    111.700    694.000
   13    12    25      1    109.500    418.400
   13    12    26      1    109.500    418.400
   25    12    26      1    107.100    781.000
   12    13    14      1    112.700    488.300
   12    13    27      1    109.500    418.400
   12    13    28      1    109.500    418.400
   14    13    27      1    109.500    418.400
   14    13    28      1    109.500    418.400
   27    13    28      1    109.100    644.300
   13    14    15      1    112.700    488.300
   13    14    29      1    109.500    418.400
   13    14    30      1    109.500    418.400
   15    14    29      1    109.500    418.400
   15    14    30      1    109.500    418.400
   29    14    30      1    109.100    644.300
   14    15    31      1    109.500    418.400
   14    15    32      1    109.500    418.400
   14    15    33      1    109.500    418.400
   31    15    32      1    109.100    644.300
   31    15    33      1    109.100    644.300
   32    15    33      1    109.100    644.300

[ dihedrals ]
;  ai    aj    ak    al   func    coefficients
    4     2     1     3      5    0.00000   0.00000  -0.01500   0.00000
    5     2     1     3      5    0.00000   0.00000  -0.01500   0.00000
    8     2     1     3      5   32.77300 -10.42000  -3.19500   0.00000
    6     3     1     2      5    0.00000   0.00000  -0.01500   0.00000
    7     3     1     2      5    0.00000   0.00000  -0.01500   0.00000
   12     3     1     2      5   32.77300 -10.42000  -3.19500   0.00000
    9     8     2     1      5   -3.09400   0.00000   0.00000   0.00000
    9     8     2     4      5    0.00000   0.00000  -0.74000   0.00000
    9     8     2     5      5    0.00000   0.00000  -0.74000   0.00000
   16     8     2     1      5    0.00000   0.00000   1.32200   0.00000
   16     8     2     4      5    0.00000   0.00000   1.45100   0.00000
   16     8     2     5      5    0.00000   0.00000   1.45100   0.00000
   17     8     2     1      5    0.00000   0.00000   1.32200   0.00000
   17     8     2     4      5    0.00000   0.00000   1.45100   0.00000
   17     8     2     5      5    0.00000   0.00000   1.45100   0.00000
   10     9     8     2      5   50.09000   0.00000  -4.62600  -4.00800
   10     9     8    16      5    1.25520   0.00000   1.67360   0.00000
   10     9     8    17      5    1.25520   0.00000   1.67360   0.00000
   18     9     8     2      5    0.00000   0.00000   1.45300   0.00000
   18     9     8    16      5  -10.46000   0.00000   1.04600   0.00000
   18     9     8    17      5  -10.46000   0.00000   1.04600   0.00000
   19     9     8     2      5    0.00000   0.00000   1.45300   0.00000
   19     9     8    16      5  -10.46000   0.00000   1.04600   0.00000
   19     9     8    17      5  -10.46000   0.00000   1.04600   0.00000
   11    10     9     8      5   27.70640   3.96640  -5.80740  -8.86170
   11    10     9    18      5    1.25520   0.00000   1.67360   0.00000
   11    10     9    19      5    1.25520   0.00000   1.67360   0.00000
   20    10     9     8      5    1.25520   0.00000   1.67360   0.00000
   20    10     9    18      5  -10.46000   0.00000   1.04600   0.00000
   20    10     9    19      5  -10.46000   0.00000   1.04600   0.00000
   21    10     9     8      5    1.25520   0.00000   1.67360   0.00000
   21    10     9    18      5  -10.46000   0.00000   1.04600   0.00000
   21    10     9    19      5  -10.46000   0.00000   1.04600   0.00000
   22    11    10     9      5    1.25520   0.00000   1.67360   0.00000
   22    11    10    20      5  -10.46000   0.00000   1.04600   0.00000
   22    11    10    21      5  -10.46000   0.00000   1.04600   0.00000
   23    11    10     9      5    1.25520   0.00000   1.67360   0.00000
   23    11    10    20      5  -10.46000   0.00000   1.04600   0.00000
   23    11    10    21      5  -10.46000   0.00000   1.04600   0.00000
   24    11    10     9      5    1.25520   0.00000   1.67360   0.00000
   24    11    10    20      5  -10.46000   0.00000   1.04600   0.00000
   24    11    10    21      5  -10.46000   0.00000   1.04600   0.00000
   13    12     3     1      5   -3.09400   0.00000   0.00000   0.00000
   13    12     3     6      5    0.00000   0.00000  -0.74000   0.00000
   13    12     3     7      5    0.00000   0.00000  -0.74000   0.00000
   25    12     3     1      5    0.00000   0.00000   1.32200   0.00000
   25    12     3     6      5    0.00000   0.00000   1.45100   0.00000
   25    12     3     7      5    0.00000   0.00000   1.45100   0.00000
   26    12     3     1      5    0.00000   0.00000   1.32200   0.00000
   26    12     3     6      5    0.00000   0.00000   1.45100   0.00000
   26    12     3     7      5    0.00000   0.00000   1.45100   0.00000
   14    13    12     3      5   50.09000   0.00000  -4.62600  -4.00800
   14    13    12    25      5    1.25520   0.00000   1.67360   0.00000
   14    13    12    26      5    1.25520   0.00000   1.67360   0.00000
   27    13    12     3      5    0.00000   0.00000   1.45300   0.00000
   27    13    12    25      5  -10.46000   0.00000   1.04600   0.00000
   27    13    12    26      5  -10.46000   0.00000   1.04600   0.00000
   28    13    12     3      5    0.00000   0.00000   1.45300   0.00000
   28    13    12    25      5  -10.46000   0.00000   1.04600   0.00000
   28    13    12    26      5  -10.46000   0.00000   1.04600   0.00000
   15    14    13    12      5   27.70640   3.96640  -5.80740  -8.86170
   15    14    13    27      5    1.25520   0.00000   1.67360   0.00000
   15    14    13    28      5    1.25520   0.00000   1.67360   0.00000
   29    14    13    12      5    1.25520   0.00000   1.67360   0.00000
   29    14    13    27      5  -10.46000   0.00000   1.04600   0.00000
   29    14    13    28      5  -10.46000   0.00000   1.04600   0.00000
   30    14    13    12      5    1.25520   0.00000   1.67360   0.00000
   30    14    13    27      5  -10.46000   0.00000   1.04600   0.00000
   30    14    13    28      5  -10.46000   0.00000   1.04600   0.00000
   31    15    14    13      5    1.25520   0.00000   1.67360   0.00000
   31    15    14    29      5  -10.46000   0.00000   1.04600   0.00000
   31    15    14    30      5  -10.46000   0.00000   1.04600   0.00000
   32    15    14    13      5    1.25520   0.00000   1.67360   0.00000
   32    15    14    29      5  -10.46000   0.00000   1.04600   0.00000
   32    15    14    30      5  -10.46000   0.00000   1.04600   0.00000
   33    15    14    13      5    1.25520   0.00000   1.67360   0.00000
   33    15    14    29      5  -10.46000   0.00000   1.04600   0.00000
   33    15    14    30      5  -10.46000   0.00000   1.04600   0.00000
