[ atomtypes ]
; name  at.nr     mass   charge  ptype  sigma        epsilon
NBT         7  14.0000  -0.6600      A  3.25000e-01  7.11280e-01
SBT        16  32.0660   1.0200      A  3.55000e-01  1.04600e+00
OBT         8  15.9990  -0.5300      A  3.15000e-01  8.37360e-01
C1F         6  12.0110   0.1900      A  3.50000e-01  2.76140e-01
CEF         6  12.0110   0.3600      A  3.50000e-01  2.76140e-01
F1          9  18.9980  -0.1600      A  3.11800e-01  2.55400e-01
F           9  18.9980  -0.1200      A  2.95000e-01  2.21750e-01

